 Gaussian 16, Revision B.01,
 Gaussian 16:  ES64L-G16RevB.01 20-Dec-2017

 ------------------------------------------
 # nmr=giao b3lyp/genecp pop=nbo scfcyc=200
 ------------------------------------------

 -------------
 Ligand 59 SPE
 -------------
 Symbolic Z-matrix:
 Charge =  1 Multiplicity = 1

                         Standard orientation:
 ---------------------------------------------------------------------
 Center     Atomic      Atomic             Coordinates (Angstroms)
 Number     Number       Type             X           Y           Z
 ---------------------------------------------------------------------
      1         45           0       -1.728419   -0.363359    0.242320
      2         15           0       -0.822148    1.808141   -0.349740
      3         15           0        0.611671   -0.614960   -0.001100
      4          6           0       -3.745569    0.110582    1.151110
      5          1           0       -3.630399    1.130282    1.500660
      6          6           0       -3.962389   -0.903158    2.246490
      7          1           0       -5.011939   -0.879178    2.565700
      8          1           0       -3.381569   -0.582778    3.114290
      9          6           0       -3.559030   -2.345078    1.873430
     10          1           0       -3.376220   -2.901128    2.794370
     11          1           0       -4.385020   -2.855608    1.378010
     12          6           0       -2.315360   -2.419159    1.006380
     13          1           0       -1.431360   -2.806499    1.499650
     14          6           0       -2.295140   -2.427269   -0.377320
     15          1           0       -1.404260   -2.821989   -0.853750
     16          6           0       -3.483410   -2.313078   -1.299370
     17          1           0       -3.935780   -3.303798   -1.434470
     18          1           0       -3.112490   -2.020028   -2.283820
     19          6           0       -4.556439   -1.305688   -0.839650
     20          1           0       -5.146219   -1.004358   -1.707070
     21          1           0       -5.256640   -1.780798   -0.152940
     22          6           0       -3.974569   -0.063168   -0.194740
     23          1           0       -3.999109    0.832032   -0.803590
     24          6           0       -0.252808    3.452771   -2.671100
     25          1           0        0.666052    2.890060   -2.840170
     26          1           0       -0.005668    4.338441   -2.091460
     27          1           0       -0.603588    3.791791   -3.649820
     28          6           0       -1.359518    2.602901   -2.024440
     29          6           0       -2.617078    3.465551   -1.831370
     30          1           0       -3.005388    3.749212   -2.812950
     31          1           0       -2.404898    4.387721   -1.291930
     32          1           0       -3.414528    2.936802   -1.306720
     33          6           0       -1.695449    1.438491   -2.974760
     34          1           0       -2.484839    0.799131   -2.582540
     35          1           0       -0.828929    0.809771   -3.183230
     36          1           0       -2.031648    1.849541   -3.930210
     37          6           0       -0.547258    3.114031    1.035900
     38          6           0       -1.904328    3.611761    1.562480
     39          1           0       -2.499458    4.118661    0.806040
     40          1           0       -1.724458    4.327561    2.368770
     41          1           0       -2.496838    2.798301    1.980820
     42          6           0        0.303912    4.309511    0.584350
     43          1           0        1.242982    4.006460    0.118230
     44          1           0        0.556733    4.911710    1.461390
     45          1           0       -0.230907    4.960011   -0.106250
     46          6           0        0.169082    2.392081    2.190370
     47          1           0       -0.377889    1.508231    2.522540
     48          1           0        0.240062    3.077281    3.038980
     49          1           0        1.183542    2.089750    1.933070
     50          6           0        0.880481    1.089430   -0.713490
     51          1           0        1.044431    1.025350   -1.787040
     52          1           0        1.723452    1.626860   -0.286410
     53          6           0        1.210320   -1.900220   -1.184220
     54          6           0        1.157590   -1.712080   -2.567510
     55          1           0        0.838451   -0.767620   -2.987710
     56          6           0        1.526800   -2.736470   -3.432580
     57          1           0        1.493160   -2.572030   -4.502370
     58          6           0        1.938440   -3.965860   -2.927970
     59          1           0        2.225639   -4.762060   -3.602860
     60          6           0        1.978880   -4.166460   -1.552130
     61          1           0        2.299069   -5.119700   -1.150480
     62          6           0        1.615330   -3.142470   -0.683780
     63          1           0        1.668560   -3.310520    0.384540
     64          6           0        1.665671   -0.798030    1.512030
     65          6           0        1.024901   -1.356120    2.624840
     66          1           0       -0.021340   -1.618689    2.551680
     67          6           0        1.691710   -1.554660    3.826480
     68          1           0        1.172050   -1.993420    4.668750
     69          6           0        3.021761   -1.173970    3.935910
     70          1           0        3.559461   -1.318011    4.864660
     71          6           0        3.665061   -0.600101    2.847070
     72          1           0        4.702491   -0.302561    2.935040
     73          6           0        3.019561   -0.404290    1.619980
     74          6           0        3.815621    0.252349    0.539000
     75          6           0        4.187841   -0.419611   -0.628350
     76          1           0        3.883991   -1.445741   -0.779180
     77          6           0        4.976611    0.209749   -1.586930
     78          1           0        5.266951   -0.331681   -2.478790
     79          6           0        5.407551    1.517979   -1.395350
     80          1           0        6.025072    2.003219   -2.140720
     81          6           0        5.057222    2.192389   -0.229650
     82          1           0        5.402412    3.205229   -0.062400
     83          6           0        4.274762    1.562279    0.731610
     84          1           0        4.018262    2.088719    1.643530
 ---------------------------------------------------------------------

 SCF Done:  E(RB3LYP) =  -2155.08781392     A.U. after   16 cycles

      1  Rh   Isotropic =  -347.7169   Anisotropy =   399.7107

      2  P    Isotropic =   286.6853   Anisotropy =   141.9439

      3  P    Isotropic =   312.6802   Anisotropy =   102.4372

      4  C    Isotropic =    74.8300   Anisotropy =   119.8660

      5  H    Isotropic =    26.1162   Anisotropy =     3.7548

      6  C    Isotropic =   147.6436   Anisotropy =    28.6566

      7  H    Isotropic =    29.0875   Anisotropy =    12.9520

      8  H    Isotropic =    28.9701   Anisotropy =     7.2797

      9  C    Isotropic =   154.6233   Anisotropy =    23.8834

     10  H    Isotropic =    29.7555   Anisotropy =    11.5420

     11  H    Isotropic =    29.8332   Anisotropy =     9.8859

     12  C    Isotropic =    87.6168   Anisotropy =   109.0040

     13  H    Isotropic =    27.2528   Anisotropy =     6.0646

     14  C    Isotropic =    73.2127   Anisotropy =   123.0588

     15  H    Isotropic =    27.5448   Anisotropy =     5.9316

     16  C    Isotropic =   147.4490   Anisotropy =    29.4523

     17  H    Isotropic =    29.4211   Anisotropy =    12.3067

     18  H    Isotropic =    29.3902   Anisotropy =     6.0130

     19  C    Isotropic =   154.0056   Anisotropy =    25.0940

     20  H    Isotropic =    29.9411   Anisotropy =    11.1666

     21  H    Isotropic =    29.8614   Anisotropy =     9.9044

     22  C    Isotropic =    77.7543   Anisotropy =   124.3899

     23  H    Isotropic =    26.8778   Anisotropy =     5.1877

     24  C    Isotropic =   157.6781   Anisotropy =    38.8514

     25  H    Isotropic =    30.9546   Anisotropy =     5.8693

     26  H    Isotropic =    30.6208   Anisotropy =     7.0270

     27  H    Isotropic =    30.9124   Anisotropy =    10.8837

     28  C    Isotropic =   135.1884   Anisotropy =    33.4613

     29  C    Isotropic =   155.4729   Anisotropy =    35.1490

     30  H    Isotropic =    30.7430   Anisotropy =    10.8376

     31  H    Isotropic =    30.5812   Anisotropy =     7.7384

     32  H    Isotropic =    30.9090   Anisotropy =     5.6966

     33  C    Isotropic =   151.2237   Anisotropy =    42.5029

     34  H    Isotropic =    29.7781   Anisotropy =     7.9972

     35  H    Isotropic =    30.3005   Anisotropy =     6.2477

     36  H    Isotropic =    30.8103   Anisotropy =    10.1105

     37  C    Isotropic =   135.8676   Anisotropy =    32.8140

     38  C    Isotropic =   155.3729   Anisotropy =    40.5900

     39  H    Isotropic =    30.5204   Anisotropy =     7.2028

     40  H    Isotropic =    30.9116   Anisotropy =    10.6958

     41  H    Isotropic =    30.7954   Anisotropy =     6.6941

     42  C    Isotropic =   157.5312   Anisotropy =    33.6558

     43  H    Isotropic =    31.0466   Anisotropy =     6.2083

     44  H    Isotropic =    31.0112   Anisotropy =    10.3972

     45  H    Isotropic =    30.7499   Anisotropy =     8.3725

     46  C    Isotropic =   150.9911   Anisotropy =    40.3781

     47  H    Isotropic =    30.7537   Anisotropy =     6.8682

     48  H    Isotropic =    31.2720   Anisotropy =     8.3650

     49  H    Isotropic =    31.4658   Anisotropy =    10.1801

     50  C    Isotropic =   144.5053   Anisotropy =    46.6316

     51  H    Isotropic =    28.7920   Anisotropy =     4.1126

     52  H    Isotropic =    29.2249   Anisotropy =    15.2876

     53  C    Isotropic =    39.5598   Anisotropy =   179.7091

     54  C    Isotropic =    52.8969   Anisotropy =   184.9443

     55  H    Isotropic =    24.3064   Anisotropy =     9.6240

     56  C    Isotropic =    48.6271   Anisotropy =   190.7479

     57  H    Isotropic =    24.0413   Anisotropy =     6.3198

     58  C    Isotropic =    47.3076   Anisotropy =   194.6258

     59  H    Isotropic =    24.0948   Anisotropy =     3.1545

     60  C    Isotropic =    47.9661   Anisotropy =   191.4956

     61  H    Isotropic =    24.2424   Anisotropy =     6.7457

     62  C    Isotropic =    47.9937   Anisotropy =   191.1436

     63  H    Isotropic =    24.8787   Anisotropy =    12.2138

     64  C    Isotropic =    49.1585   Anisotropy =   162.0467

     65  C    Isotropic =    39.8209   Anisotropy =   179.4157

     66  H    Isotropic =    23.4628   Anisotropy =     9.4134

     67  C    Isotropic =    51.6276   Anisotropy =   184.8319

     68  H    Isotropic =    24.0577   Anisotropy =     6.3793

     69  C    Isotropic =    45.0590   Anisotropy =   195.8770

     70  H    Isotropic =    23.9273   Anisotropy =     3.5391

     71  C    Isotropic =    43.0502   Anisotropy =   171.2080

     72  H    Isotropic =    24.3052   Anisotropy =     9.7022

     73  C    Isotropic =    28.4489   Anisotropy =   193.1789

     74  C    Isotropic =    36.3861   Anisotropy =   187.9981

     75  C    Isotropic =    49.2059   Anisotropy =   185.9157

     76  H    Isotropic =    25.7003   Anisotropy =     7.9863

     77  C    Isotropic =    50.2679   Anisotropy =   190.0872

     78  H    Isotropic =    24.7628   Anisotropy =     7.3105

     79  C    Isotropic =    49.3066   Anisotropy =   193.7954

     80  H    Isotropic =    24.3086   Anisotropy =     3.5250

     81  C    Isotropic =    49.6312   Anisotropy =   190.1792

     82  H    Isotropic =    24.2241   Anisotropy =     5.0610

     83  C    Isotropic =    49.7566   Anisotropy =   172.0379

     84  H    Isotropic =    24.5742   Anisotropy =     7.9066

 The electronic state is 1-A.
 Alpha  occ. eigenvalues --  -77.23847 -77.22488 -10.31156 -10.30919 -10.29942
 Alpha  occ. eigenvalues --  -10.29873 -10.29746 -10.29683 -10.29077 -10.28942
 Alpha  occ. eigenvalues --  -10.28895 -10.28517 -10.28445 -10.28328 -10.28225
 Alpha  occ. eigenvalues --  -10.28097 -10.27773 -10.27682 -10.27671 -10.27550
 Alpha  occ. eigenvalues --  -10.27521 -10.27474 -10.27462 -10.27378 -10.27278
 Alpha  occ. eigenvalues --  -10.27164 -10.26808 -10.26772 -10.26772 -10.26553
 Alpha  occ. eigenvalues --  -10.26498 -10.26479 -10.26456 -10.26423 -10.26394
 Alpha  occ. eigenvalues --  -10.26378 -10.26289  -6.69787  -6.68459  -4.86073
 Alpha  occ. eigenvalues --   -4.86017  -4.85687  -4.84760  -4.84639  -4.84363
 Alpha  occ. eigenvalues --   -3.31309  -2.08162  -2.07506  -2.04809  -0.97521
 Alpha  occ. eigenvalues --   -0.96480  -0.94765  -0.94397  -0.93456  -0.91543
 Alpha  occ. eigenvalues --   -0.89067  -0.88654  -0.87979  -0.87652  -0.85521
 Alpha  occ. eigenvalues --   -0.85131  -0.84497  -0.83918  -0.82160  -0.80312
 Alpha  occ. eigenvalues --   -0.79806  -0.79693  -0.79028  -0.78977  -0.77748
 Alpha  occ. eigenvalues --   -0.75348  -0.72690  -0.71918  -0.71072  -0.70829
 Alpha  occ. eigenvalues --   -0.70485  -0.69586  -0.68452  -0.66377  -0.66022
 Alpha  occ. eigenvalues --   -0.65781  -0.62911  -0.62585  -0.62444  -0.61606
 Alpha  occ. eigenvalues --   -0.60070  -0.59401  -0.58167  -0.57255  -0.57038
 Alpha  occ. eigenvalues --   -0.56824  -0.56254  -0.56191  -0.55797  -0.55427
 Alpha  occ. eigenvalues --   -0.55100  -0.54999  -0.54675  -0.54566  -0.53773
 Alpha  occ. eigenvalues --   -0.53695  -0.53577  -0.53115  -0.52715  -0.52566
 Alpha  occ. eigenvalues --   -0.52514  -0.51832  -0.51446  -0.50933  -0.50623
 Alpha  occ. eigenvalues --   -0.50379  -0.49617  -0.48928  -0.48638  -0.48457
 Alpha  occ. eigenvalues --   -0.48019  -0.47771  -0.47521  -0.47438  -0.46885
 Alpha  occ. eigenvalues --   -0.46786  -0.46285  -0.46079  -0.46006  -0.45877
 Alpha  occ. eigenvalues --   -0.45252  -0.45161  -0.45076  -0.44402  -0.44093
 Alpha  occ. eigenvalues --   -0.43847  -0.43573  -0.43433  -0.43044  -0.42845
 Alpha  occ. eigenvalues --   -0.42615  -0.41941  -0.40364  -0.40285  -0.38129
 Alpha  occ. eigenvalues --   -0.36582  -0.36460  -0.36281  -0.36065  -0.35328
 Alpha  occ. eigenvalues --   -0.34751  -0.34556  -0.34117  -0.33701  -0.33346
 Alpha  occ. eigenvalues --   -0.30577
 Alpha virt. eigenvalues --   -0.16161  -0.14748  -0.13553  -0.12422  -0.11794
 Alpha virt. eigenvalues --   -0.11545  -0.10281  -0.09563  -0.09199  -0.07999
 Alpha virt. eigenvalues --   -0.07434  -0.06901  -0.06575  -0.06086  -0.05754

 Mulliken charges:
               1
     1  Rh  -0.432786
     2  P    0.406757
     3  P    0.305086
     4  C   -0.079000
     5  H    0.189974
     6  C   -0.217051
     7  H    0.171511
     8  H    0.128455
     9  C   -0.360571
    10  H    0.165376
    11  H    0.168342
    12  C   -0.050402
    13  H    0.179865
    14  C   -0.082448
    15  H    0.221396
    16  C   -0.225346
    17  H    0.169734
    18  H    0.133261
    19  C   -0.360413
    20  H    0.166479
    21  H    0.168965
    22  C   -0.055609
    23  H    0.172342
    24  C   -0.362799
    25  H    0.137917
    26  H    0.151635
    27  H    0.149445
    28  C   -0.084502
    29  C   -0.422004
    30  H    0.154886
    31  H    0.149230
    32  H    0.148094
    33  C   -0.366533
    34  H    0.137341
    35  H    0.111304
    36  H    0.159618
    37  C    0.006152
    38  C   -0.401121
    39  H    0.154202
    40  H    0.155520
    41  H    0.124526
    42  C   -0.401562
    43  H    0.147151
    44  H    0.150380
    45  H    0.140648
    46  C   -0.441129
    47  H    0.164760
    48  H    0.157731
    49  H    0.151295
    50  C   -0.654761
    51  H    0.199513
    52  H    0.251047
    53  C   -0.217691
    54  C   -0.000387
    55  H    0.108243
    56  C   -0.126147
    57  H    0.130859
    58  C   -0.091411
    59  H    0.139641
    60  C   -0.099683
    61  H    0.134167
    62  C   -0.053645
    63  H    0.161465
    64  C   -0.279928
    65  C    0.026666
    66  H    0.122558
    67  C   -0.139426
    68  H    0.127070
    69  C   -0.040556
    70  H    0.138254
    71  C   -0.153559
    72  H    0.139680
    73  C    0.114292
    74  C   -0.193948
    75  C   -0.023458
    76  H    0.154556
    77  C   -0.143675
    78  H    0.126083
    79  C   -0.088060
    80  H    0.132892
    81  C   -0.095955
    82  H    0.129337
    83  C   -0.126019
    84  H    0.135883
 Sum of Mulliken charges =   1.00000

 Dipole moment (field-independent basis, Debye):
    X=             -1.3845    Y=              0.8416    Z=             -0.5760  Tot=              1.7195
 Quadrupole moment (field-independent basis, Debye-Ang):
   XX=           -213.0755   YY=           -215.5954   ZZ=           -220.2293
   XY=              0.7896   XZ=             -0.9586   YZ=             -1.0953

 Summary of Natural Population Analysis:

                                       Natural Population
                Natural  -----------------------------------------------
    Atom  No    Charge         Core      Valence    Rydberg      Total
 -----------------------------------------------------------------------
     Rh    1   -0.34284     35.98597     9.32832    0.02855    45.34284
      P    2    1.06649      9.99686     3.89175    0.04489    13.93351
      P    3    1.12254      9.99651     3.82964    0.05130    13.87746
      C    4   -0.16625      1.99910     4.14715    0.02001     6.16625
      H    5    0.22213      0.00000     0.77563    0.00223     0.77787
      C    6   -0.41733      1.99935     4.40533    0.01265     6.41733
      H    7    0.23384      0.00000     0.76428    0.00188     0.76616
      H    8    0.21628      0.00000     0.78199    0.00173     0.78372
      C    9   -0.42125      1.99936     4.41002    0.01187     6.42125
      H   10    0.22649      0.00000     0.77198    0.00153     0.77351
      H   11    0.21519      0.00000     0.78281    0.00201     0.78481
      C   12   -0.20171      1.99908     4.18329    0.01935     6.20171
      H   13    0.21860      0.00000     0.77926    0.00214     0.78140
      C   14   -0.14974      1.99910     4.13124    0.01940     6.14974
      H   15    0.23096      0.00000     0.76686    0.00218     0.76904
      C   16   -0.41615      1.99935     4.40428    0.01252     6.41615
      H   17    0.23330      0.00000     0.76479    0.00191     0.76670
      H   18    0.21647      0.00000     0.78181    0.00172     0.78353
      C   19   -0.42573      1.99935     4.41428    0.01210     6.42573
      H   20    0.22754      0.00000     0.77095    0.00151     0.77246
      H   21    0.21646      0.00000     0.78157    0.00197     0.78354
      C   22   -0.17381      1.99908     4.15495    0.01979     6.17381
      H   23    0.21870      0.00000     0.77894    0.00235     0.78130
      C   24   -0.60673      1.99935     4.59854    0.00884     6.60673
      H   25    0.20521      0.00000     0.79326    0.00153     0.79479
      H   26    0.21377      0.00000     0.78457    0.00166     0.78623
      H   27    0.22112      0.00000     0.77711    0.00177     0.77888
      C   28   -0.25497      1.99942     4.23890    0.01666     6.25497
      C   29   -0.60361      1.99935     4.59595    0.00831     6.60361
      H   30    0.22206      0.00000     0.77612    0.00182     0.77794
      H   31    0.20942      0.00000     0.78886    0.00172     0.79058
      H   32    0.20718      0.00000     0.79129    0.00154     0.79282
      C   33   -0.59485      1.99936     4.58696    0.00854     6.59485
      H   34    0.21791      0.00000     0.78032    0.00176     0.78209
      H   35    0.19967      0.00000     0.79874    0.00159     0.80033
      H   36    0.22080      0.00000     0.77732    0.00188     0.77920
      C   37   -0.26168      1.99941     4.24504    0.01723     6.26168
      C   38   -0.60005      1.99935     4.59255    0.00815     6.60005
      H   39    0.21105      0.00000     0.78731    0.00164     0.78895
      H   40    0.22084      0.00000     0.77737    0.00180     0.77916
      H   41    0.20654      0.00000     0.79199    0.00147     0.79346
      C   42   -0.60636      1.99935     4.59815    0.00886     6.60636
      H   43    0.20903      0.00000     0.78932    0.00166     0.79097
      H   44    0.22109      0.00000     0.77712    0.00179     0.77891
      H   45    0.20739      0.00000     0.79090    0.00170     0.79261
      C   46   -0.60197      1.99936     4.59307    0.00954     6.60197
      H   47    0.22021      0.00000     0.77824    0.00155     0.77979
      H   48    0.22251      0.00000     0.77564    0.00185     0.77749
      H   49    0.20766      0.00000     0.79038    0.00196     0.79234
      C   50   -1.00716      1.99940     4.99035    0.01740     7.00716
      H   51    0.25742      0.00000     0.74026    0.00232     0.74258
      H   52    0.27003      0.00000     0.72713    0.00285     0.72997
      C   53   -0.33337      1.99898     4.31043    0.02396     6.33337
      C   54   -0.19962      1.99908     4.18539    0.01515     6.19962
      H   55    0.20335      0.00000     0.79421    0.00244     0.79665
      C   56   -0.18930      1.99920     4.17538    0.01472     6.18930
      H   57    0.22157      0.00000     0.77719    0.00124     0.77843
      C   58   -0.18631      1.99920     4.17232    0.01479     6.18631
      H   59    0.22380      0.00000     0.77502    0.00118     0.77620
      C   60   -0.18781      1.99919     4.17396    0.01466     6.18781
      H   61    0.22373      0.00000     0.77504    0.00124     0.77627
      C   62   -0.20887      1.99908     4.19467    0.01512     6.20887
      H   63    0.22282      0.00000     0.77532    0.00186     0.77718
      C   64   -0.32606      1.99890     4.30304    0.02412     6.32606
      C   65   -0.18540      1.99912     4.17043    0.01586     6.18540
      H   66    0.21838      0.00000     0.77950    0.00212     0.78162
      C   67   -0.20116      1.99918     4.18717    0.01481     6.20116
      H   68    0.22195      0.00000     0.77684    0.00121     0.77805
      C   69   -0.16923      1.99919     4.15544    0.01459     6.16923
      H   70    0.22422      0.00000     0.77463    0.00115     0.77578
      C   71   -0.18244      1.99911     4.16936    0.01397     6.18244
      H   72    0.22443      0.00000     0.77405    0.00152     0.77557
      C   73   -0.02236      1.99898     4.00120    0.02218     6.02236
      C   74   -0.06963      1.99905     4.04991    0.02067     6.06963
      C   75   -0.19822      1.99909     4.18336    0.01577     6.19822
      H   76    0.22004      0.00000     0.77729    0.00267     0.77996
      C   77   -0.19371      1.99921     4.17931    0.01519     6.19371
      H   78    0.21818      0.00000     0.78050    0.00132     0.78182
      C   79   -0.19732      1.99920     4.18314    0.01498     6.19732
      H   80    0.21949      0.00000     0.77938    0.00113     0.78051
      C   81   -0.19755      1.99920     4.18322    0.01513     6.19755
      H   82    0.21867      0.00000     0.78011    0.00122     0.78133
      C   83   -0.20961      1.99910     4.19589    0.01461     6.20961
      H   84    0.21359      0.00000     0.78469    0.00172     0.78641
 =======================================================================
   * Total *    1.00000    125.95150   203.31126    0.73724   330.00000

 Normal termination of Gaussian 16 at Wed Nov  6 01:13:54 2024.
