 Gaussian 16, Revision B.01,
 Gaussian 16:  ES64L-G16RevB.01 20-Dec-2017

 ------------------------------------------
 # nmr=giao b3lyp/genecp pop=nbo scfcyc=200
 ------------------------------------------

 -------------
 Ligand 63 SPE
 -------------
 Symbolic Z-matrix:
 Charge =  1 Multiplicity = 1

                         Standard orientation:
 ---------------------------------------------------------------------
 Center     Atomic      Atomic             Coordinates (Angstroms)
 Number     Number       Type             X           Y           Z
 ---------------------------------------------------------------------
      1         15           0       -0.100425   -1.232070    0.302390
      2          7           0       -0.930271    0.298517    0.610500
      3          6           0       -0.012522   -2.108720    1.911040
      4          6           0        0.154953   -3.498059    1.946410
      5          6           0        0.352735   -4.147188    3.160080
      6          6           0        0.385933   -3.420158    4.345660
      7          6           0        0.231028   -2.037579    4.315170
      8          6           0        0.043275   -1.381529    3.104440
      9          6           0       -1.126772   -2.254634   -0.815520
     10          6           0       -0.873462   -2.169043   -2.188720
     11          6           0       -1.638659   -2.899315   -3.089290
     12          6           0       -2.660716   -3.721069   -2.625210
     13          6           0       -2.921246   -3.807100   -1.260820
     14          6           0       -2.159939   -3.078027   -0.356250
     15          6           0       -2.301221    0.451112    1.181530
     16          6           0       -2.455186    1.769192    1.948810
     17          6           0       -3.420711    0.275098    0.163890
     18          6           0       -3.370923    0.828838   -1.114840
     19          6           0       -4.457122    0.710254   -1.976350
     20          6           0       -5.608900    0.044870   -1.569690
     21          6           0       -5.668148   -0.507190   -0.294570
     22          6           0       -4.579208   -0.394306    0.562570
     23          1           0        0.125325   -4.079659    1.033910
     24          1           0        0.476709   -5.222618    3.177830
     25          1           0        0.534544   -3.928738    5.289740
     26          1           0        0.260366   -1.467059    5.234900
     27          1           0       -0.056929   -0.303880    3.092610
     28          1           0       -0.081864   -1.523910   -2.550890
     29          1           0       -1.436849   -2.828525   -4.150570
     30          1           0       -3.255894   -4.292791   -3.326080
     31          1           0       -3.721474   -4.440543   -0.899870
     32          1           0       -2.375098   -3.152978    0.701200
     33          1           0       -2.391208   -0.359198    1.909250
     34          1           0       -2.485355    1.354922   -1.446000
     35          1           0       -4.404214    1.143805   -2.967530
     36          1           0       -6.454090   -0.041823   -2.240850
     37          1           0       -6.559936   -1.027143    0.032850
     38          1           0       -4.635187   -0.829046    1.555190
     39          1           0       -3.435386    1.781558    2.424950
     40          1           0       -2.411859    2.630372    1.281440
     41          1           0       -1.693256    1.877334    2.721060
     42         45           0        1.830561   -0.155983   -0.456860
     43          6           0        3.399507    1.033643   -1.627520
     44          6           0        3.674526    1.146664   -0.281520
     45          6           0        3.468537   -1.787407   -0.249020
     46          6           0        2.928327   -1.871959   -1.508730
     47          1           0        2.810164    1.826661   -2.075500
     48          6           0        4.124420    0.127865   -2.606100
     49          1           0        3.316493    2.037142    0.225230
     50          6           0        4.672989    0.344707    0.515240
     51          6           0        4.792154   -1.139092    0.105360
     52          1           0        3.040509   -2.427929    0.514900
     53          1           0        2.143310   -2.605482   -1.662410
     54          6           0        3.479845   -1.266027   -2.775400
     55          1           0        5.167580    0.029369   -2.307330
     56          1           0        4.137458    0.617355   -3.581040
     57          1           0        5.658237    0.823401    0.453670
     58          1           0        4.379789    0.403416    1.565380
     59          1           0        5.230536   -1.690441    0.938700
     60          1           0        5.486285   -1.249660   -0.726980
     61          1           0        4.206207   -1.955154   -3.223710
     62          1           0        2.660115   -1.194590   -3.493480
     63          6           0       -0.414633    3.771909   -0.340660
     64          6           0        0.133697    3.768761    0.933430
     65          6           0       -0.913637    4.921337   -0.914290
     66          6           0        0.203513    4.914611    1.696010
     67          6           0       -0.844372    6.092267   -0.153950
     68          1           0       -1.339367    4.909196   -1.908220
     69          6           0       -0.295182    6.089299    1.125460
     70          1           0        0.631593    4.898073    2.688950
     71          1           0       -1.223255    7.015286   -0.572290
     72          1           0       -0.252555    7.009900    1.692270
     73         15           0        0.278195    1.380881    0.110630
     74          8           0        0.575511    2.507323    1.315320
     75          8           0       -0.390339    2.511259   -0.929220
 ---------------------------------------------------------------------

 SCF Done:  E(RB3LYP) =  -2315.64159821     A.U. after   16 cycles

      1  P    Isotropic =   221.0935   Anisotropy =    65.8937

      2  N    Isotropic =    80.9700   Anisotropy =   128.0944

      3  C    Isotropic =    48.4564   Anisotropy =   159.7924

      4  C    Isotropic =    48.0206   Anisotropy =   190.9485

      5  C    Isotropic =    48.4358   Anisotropy =   191.6890

      6  C    Isotropic =    44.9976   Anisotropy =   197.6229

      7  C    Isotropic =    48.1091   Anisotropy =   191.6875

      8  C    Isotropic =    48.2304   Anisotropy =   194.5847

      9  C    Isotropic =    48.8339   Anisotropy =   170.2140

     10  C    Isotropic =    42.0745   Anisotropy =   186.5810

     11  C    Isotropic =    49.3296   Anisotropy =   190.5633

     12  C    Isotropic =    43.5673   Anisotropy =   202.1551

     13  C    Isotropic =    49.4330   Anisotropy =   192.8367

     14  C    Isotropic =    45.1279   Anisotropy =   198.3349

     15  C    Isotropic =   114.2650   Anisotropy =    51.3214

     16  C    Isotropic =   157.4999   Anisotropy =    35.6568

     17  C    Isotropic =    36.7262   Anisotropy =   191.0931

     18  C    Isotropic =    54.4345   Anisotropy =   188.0354

     19  C    Isotropic =    49.4297   Anisotropy =   191.3968

     20  C    Isotropic =    50.2889   Anisotropy =   191.6154

     21  C    Isotropic =    50.1265   Anisotropy =   189.1012

     22  C    Isotropic =    53.2744   Anisotropy =   168.3263

     23  H    Isotropic =    24.7134   Anisotropy =    11.5238

     24  H    Isotropic =    24.1456   Anisotropy =     6.0962

     25  H    Isotropic =    23.9008   Anisotropy =     3.6615

     26  H    Isotropic =    23.7961   Anisotropy =     6.8347

     27  H    Isotropic =    23.5170   Anisotropy =    10.3794

     28  H    Isotropic =    23.5714   Anisotropy =     9.6087

     29  H    Isotropic =    24.2045   Anisotropy =     6.2868

     30  H    Isotropic =    24.2688   Anisotropy =     3.2934

     31  H    Isotropic =    24.6671   Anisotropy =     5.7377

     32  H    Isotropic =    24.6179   Anisotropy =    10.2190

     33  H    Isotropic =    27.5142   Anisotropy =     5.0306

     34  H    Isotropic =    24.1790   Anisotropy =     9.0692

     35  H    Isotropic =    24.6421   Anisotropy =     6.8248

     36  H    Isotropic =    24.6813   Anisotropy =     3.2960

     37  H    Isotropic =    24.6823   Anisotropy =     5.1309

     38  H    Isotropic =    25.1923   Anisotropy =     9.5861

     39  H    Isotropic =    30.9120   Anisotropy =     9.9610

     40  H    Isotropic =    31.4502   Anisotropy =     7.4046

     41  H    Isotropic =    30.1415   Anisotropy =     6.6853

     42  Rh   Isotropic =  -271.6305   Anisotropy =   303.5424

     43  C    Isotropic =    77.6171   Anisotropy =   123.5050

     44  C    Isotropic =    73.7411   Anisotropy =   122.6784

     45  C    Isotropic =    66.7044   Anisotropy =   138.8384

     46  C    Isotropic =    70.1632   Anisotropy =   127.0939

     47  H    Isotropic =    26.7904   Anisotropy =     7.5368

     48  C    Isotropic =   154.0158   Anisotropy =    24.9550

     49  H    Isotropic =    26.2115   Anisotropy =     4.6934

     50  C    Isotropic =   147.7538   Anisotropy =    29.6744

     51  C    Isotropic =   154.1190   Anisotropy =    25.1008

     52  H    Isotropic =    27.0321   Anisotropy =     6.1729

     53  H    Isotropic =    26.1937   Anisotropy =     3.9187

     54  C    Isotropic =   148.8666   Anisotropy =    27.9826

     55  H    Isotropic =    29.6688   Anisotropy =     9.4417

     56  H    Isotropic =    29.7477   Anisotropy =    11.7210

     57  H    Isotropic =    29.1623   Anisotropy =    12.5677

     58  H    Isotropic =    29.1926   Anisotropy =     7.4911

     59  H    Isotropic =    30.0761   Anisotropy =    11.1360

     60  H    Isotropic =    29.7246   Anisotropy =     9.4287

     61  H    Isotropic =    29.1210   Anisotropy =    12.5544

     62  H    Isotropic =    29.0237   Anisotropy =     8.0904

     63  C    Isotropic =    32.8991   Anisotropy =   102.2252

     64  C    Isotropic =    32.1541   Anisotropy =   104.8239

     65  C    Isotropic =    66.9056   Anisotropy =   155.4541

     66  C    Isotropic =    67.1848   Anisotropy =   155.0931

     67  C    Isotropic =    53.5769   Anisotropy =   181.8891

     68  H    Isotropic =    24.5266   Anisotropy =     7.4362

     69  C    Isotropic =    53.5169   Anisotropy =   181.8666

     70  H    Isotropic =    24.5079   Anisotropy =     7.2993

     71  H    Isotropic =    24.5466   Anisotropy =     4.5694

     72  H    Isotropic =    24.5306   Anisotropy =     4.2454

     73  P    Isotropic =   150.7126   Anisotropy =   182.0662

     74  O    Isotropic =   146.4237   Anisotropy =    58.3891

     75  O    Isotropic =   144.1220   Anisotropy =    59.9664

 The electronic state is 1-A.
 Alpha  occ. eigenvalues --  -77.32940 -77.26946 -19.28401 -19.28329 -14.45945
 Alpha  occ. eigenvalues --  -10.33957 -10.33893 -10.32750 -10.30272 -10.30136
 Alpha  occ. eigenvalues --  -10.30069 -10.29929 -10.29892 -10.29666 -10.28962
 Alpha  occ. eigenvalues --  -10.28915 -10.28824 -10.28744 -10.28379 -10.28148
 Alpha  occ. eigenvalues --  -10.28147 -10.28116 -10.28064 -10.28053 -10.28043
 Alpha  occ. eigenvalues --  -10.27998 -10.27867 -10.27810 -10.27746 -10.27742
 Alpha  occ. eigenvalues --  -10.27128 -10.26969 -10.26912 -10.26266 -10.25932
 Alpha  occ. eigenvalues --  -10.25700 -10.25609 -10.25601 -10.25386  -6.77744
 Alpha  occ. eigenvalues --   -6.72592  -4.94158  -4.94068  -4.93591  -4.89004
 Alpha  occ. eigenvalues --   -4.88742  -4.88497  -3.33031  -2.10136  -2.09307
 Alpha  occ. eigenvalues --   -2.06291  -1.21790  -1.14648  -1.03716  -0.97173
 Alpha  occ. eigenvalues --   -0.96607  -0.96060  -0.95296  -0.94564  -0.90116
 Alpha  occ. eigenvalues --   -0.89011  -0.88777  -0.87442  -0.85917  -0.85764
 Alpha  occ. eigenvalues --   -0.85465  -0.85393  -0.84582  -0.83161  -0.81948
 Alpha  occ. eigenvalues --   -0.81181  -0.78646  -0.76899  -0.76316  -0.72618
 Alpha  occ. eigenvalues --   -0.72239  -0.72095  -0.71617  -0.71537  -0.71360
 Alpha  occ. eigenvalues --   -0.70763  -0.69544  -0.68421  -0.66898  -0.66616
 Alpha  occ. eigenvalues --   -0.63223  -0.63074  -0.62611  -0.62372  -0.61697
 Alpha  occ. eigenvalues --   -0.61507  -0.60762  -0.59821  -0.58442  -0.57837
 Alpha  occ. eigenvalues --   -0.57251  -0.56906  -0.56651  -0.56459  -0.55907
 Alpha  occ. eigenvalues --   -0.55828  -0.55111  -0.54635  -0.54379  -0.54350
 Alpha  occ. eigenvalues --   -0.53446  -0.53371  -0.53330  -0.53098  -0.52993
 Alpha  occ. eigenvalues --   -0.52521  -0.52239  -0.51626  -0.50654  -0.50306
 Alpha  occ. eigenvalues --   -0.49816  -0.49495  -0.49320  -0.48761  -0.48649
 Alpha  occ. eigenvalues --   -0.48560  -0.48033  -0.47840  -0.47077  -0.46759
 Alpha  occ. eigenvalues --   -0.46723  -0.46535  -0.46040  -0.45631  -0.45543
 Alpha  occ. eigenvalues --   -0.45212  -0.45077  -0.44431  -0.44257  -0.43888
 Alpha  occ. eigenvalues --   -0.43683  -0.43229  -0.42798  -0.42648  -0.39839
 Alpha  occ. eigenvalues --   -0.39008  -0.38643  -0.37468  -0.37139  -0.36721
 Alpha  occ. eigenvalues --   -0.36268  -0.35926  -0.35481  -0.35199  -0.34861
 Alpha  occ. eigenvalues --   -0.33850  -0.33354  -0.32965  -0.31842
 Alpha virt. eigenvalues --   -0.17297  -0.16308  -0.14006  -0.12515  -0.12287
 Alpha virt. eigenvalues --   -0.11458  -0.10865  -0.10346  -0.09819  -0.09577
 Alpha virt. eigenvalues --   -0.09339  -0.08382  -0.07228  -0.06872  -0.06204

 Mulliken charges:
               1
     1  P    0.400014
     2  N   -0.427713
     3  C   -0.133918
     4  C   -0.110744
     5  C   -0.101204
     6  C   -0.088372
     7  C   -0.103922
     8  C   -0.093200
     9  C   -0.204812
    10  C   -0.083538
    11  C   -0.103249
    12  C   -0.086035
    13  C   -0.092760
    14  C   -0.030827
    15  C   -0.195481
    16  C   -0.388557
    17  C    0.133095
    18  C   -0.123526
    19  C   -0.105853
    20  C   -0.101459
    21  C   -0.089657
    22  C   -0.157853
    23  H    0.163810
    24  H    0.137961
    25  H    0.142442
    26  H    0.136093
    27  H    0.149545
    28  H    0.173061
    29  H    0.132848
    30  H    0.139477
    31  H    0.134713
    32  H    0.159084
    33  H    0.195176
    34  H    0.178805
    35  H    0.117494
    36  H    0.128145
    37  H    0.121362
    38  H    0.114180
    39  H    0.155506
    40  H    0.151551
    41  H    0.149324
    42  Rh  -0.664827
    43  C    0.006472
    44  C   -0.110708
    45  C   -0.014753
    46  C   -0.105670
    47  H    0.186003
    48  C   -0.353678
    49  H    0.202301
    50  C   -0.222567
    51  C   -0.348437
    52  H    0.192388
    53  H    0.206761
    54  C   -0.223339
    55  H    0.168784
    56  H    0.174852
    57  H    0.176091
    58  H    0.140679
    59  H    0.173416
    60  H    0.166593
    61  H    0.177568
    62  H    0.134507
    63  C    0.066268
    64  C    0.032663
    65  C   -0.123102
    66  C   -0.110173
    67  C   -0.103712
    68  H    0.145170
    69  C   -0.106581
    70  H    0.145201
    71  H    0.138780
    72  H    0.138632
    73  P    0.736189
    74  O   -0.252890
    75  O   -0.259886
 Sum of Mulliken charges =   1.00000

 Dipole moment (field-independent basis, Debye):
    X=              2.1289    Y=             -2.1629    Z=              0.1834  Tot=              3.0404
 Quadrupole moment (field-independent basis, Debye-Ang):
   XX=           -208.9078   YY=           -205.1257   ZZ=           -220.3619
   XY=              3.3964   XZ=             -0.6045   YZ=             -0.6705

 Summary of Natural Population Analysis:

                                       Natural Population
                Natural  -----------------------------------------------
    Atom  No    Charge         Core      Valence    Rydberg      Total
 -----------------------------------------------------------------------
      P    1    1.35358      9.99593     3.58808    0.06242    13.64642
      N    2   -1.01652      1.99959     5.99194    0.02498     8.01652
      C    3   -0.37551      1.99899     4.35141    0.02510     6.37551
      C    4   -0.19655      1.99910     4.18226    0.01519     6.19655
      C    5   -0.19106      1.99920     4.17715    0.01472     6.19106
      C    6   -0.17605      1.99921     4.16223    0.01462     6.17605
      C    7   -0.19003      1.99920     4.17617    0.01467     6.19003
      C    8   -0.19078      1.99909     4.17627    0.01541     6.19078
      C    9   -0.38473      1.99898     4.35942    0.02633     6.38473
      C   10   -0.17424      1.99910     4.15964    0.01551     6.17424
      C   11   -0.19587      1.99919     4.18203    0.01465     6.19587
      C   12   -0.16316      1.99921     4.14956    0.01440     6.16316
      C   13   -0.19073      1.99919     4.17647    0.01506     6.19073
      C   14   -0.17431      1.99909     4.15766    0.01756     6.17431
      C   15   -0.06097      1.99925     4.03584    0.02588     6.06097
      C   16   -0.59781      1.99941     4.59024    0.00816     6.59781
      C   17   -0.04346      1.99904     4.02359    0.02083     6.04346
      C   18   -0.21452      1.99908     4.20022    0.01522     6.21452
      C   19   -0.18996      1.99922     4.17539    0.01535     6.18996
      C   20   -0.19886      1.99920     4.18470    0.01496     6.19886
      C   21   -0.19270      1.99920     4.17839    0.01511     6.19270
      C   22   -0.20718      1.99911     4.19332    0.01476     6.20718
      H   23    0.22175      0.00000     0.77653    0.00172     0.77825
      H   24    0.22433      0.00000     0.77445    0.00122     0.77567
      H   25    0.22447      0.00000     0.77438    0.00116     0.77553
      H   26    0.22351      0.00000     0.77529    0.00121     0.77649
      H   27    0.21890      0.00000     0.77893    0.00217     0.78110
      H   28    0.21856      0.00000     0.77906    0.00238     0.78144
      H   29    0.22224      0.00000     0.77654    0.00122     0.77776
      H   30    0.22345      0.00000     0.77542    0.00113     0.77655
      H   31    0.22387      0.00000     0.77487    0.00126     0.77613
      H   32    0.22085      0.00000     0.77683    0.00232     0.77915
      H   33    0.20937      0.00000     0.78724    0.00339     0.79063
      H   34    0.21724      0.00000     0.78027    0.00249     0.78276
      H   35    0.21383      0.00000     0.78481    0.00136     0.78617
      H   36    0.21741      0.00000     0.78144    0.00115     0.78259
      H   37    0.21663      0.00000     0.78216    0.00120     0.78337
      H   38    0.20602      0.00000     0.79238    0.00160     0.79398
      H   39    0.23194      0.00000     0.76696    0.00110     0.76806
      H   40    0.21269      0.00000     0.78563    0.00168     0.78731
      H   41    0.21433      0.00000     0.78435    0.00131     0.78567
     Rh   42   -0.51182     35.98390     9.49762    0.03030    45.51182
      C   43   -0.16962      1.99905     4.15069    0.01987     6.16962
      C   44   -0.14991      1.99908     4.13016    0.02067     6.14991
      C   45   -0.15110      1.99907     4.13252    0.01952     6.15110
      C   46   -0.16218      1.99909     4.14223    0.02086     6.16218
      H   47    0.23536      0.00000     0.76312    0.00152     0.76464
      C   48   -0.42227      1.99936     4.41121    0.01170     6.42227
      H   49    0.23324      0.00000     0.76492    0.00184     0.76676
      C   50   -0.42309      1.99935     4.41087    0.01286     6.42309
      C   51   -0.42517      1.99936     4.41396    0.01185     6.42517
      H   52    0.23167      0.00000     0.76625    0.00209     0.76833
      H   53    0.23200      0.00000     0.76599    0.00202     0.76800
      C   54   -0.42452      1.99936     4.41223    0.01294     6.42452
      H   55    0.21287      0.00000     0.78518    0.00195     0.78713
      H   56    0.23205      0.00000     0.76648    0.00147     0.76795
      H   57    0.23695      0.00000     0.76121    0.00184     0.76305
      H   58    0.22420      0.00000     0.77439    0.00141     0.77580
      H   59    0.23258      0.00000     0.76597    0.00144     0.76742
      H   60    0.21287      0.00000     0.78513    0.00200     0.78713
      H   61    0.23795      0.00000     0.76024    0.00181     0.76205
      H   62    0.21967      0.00000     0.77892    0.00141     0.78033
      C   63    0.19625      1.99857     3.78156    0.02361     5.80375
      C   64    0.19921      1.99858     3.77805    0.02416     5.80079
      C   65   -0.22832      1.99907     4.21442    0.01483     6.22832
      C   66   -0.23044      1.99907     4.21645    0.01492     6.23044
      C   67   -0.19463      1.99923     4.18073    0.01467     6.19463
      H   68    0.23442      0.00000     0.76409    0.00150     0.76558
      C   69   -0.19418      1.99923     4.18029    0.01466     6.19418
      H   70    0.23364      0.00000     0.76486    0.00150     0.76636
      H   71    0.22530      0.00000     0.77360    0.00110     0.77470
      H   72    0.22511      0.00000     0.77379    0.00110     0.77489
      P   73    1.85283      9.99527     3.05186    0.10004    13.14717
      O   74   -0.70504      1.99981     6.69334    0.01190     8.70504
      O   75   -0.70583      1.99980     6.69430    0.01173     8.70583
 =======================================================================
   * Total *    1.00000    129.94482   205.18615    0.86903   336.00000

 Normal termination of Gaussian 16 at Wed Nov  6 01:20:34 2024.
