 Gaussian 16, Revision B.01,
 Gaussian 16:  ES64L-G16RevB.01 20-Dec-2017

 ------------------------------------------
 # nmr=giao b3lyp/genecp pop=nbo scfcyc=200
 ------------------------------------------

 -------------
 Ligand 72 SPE
 -------------
 Symbolic Z-matrix:
 Charge =  1 Multiplicity = 1

                         Standard orientation:
 ---------------------------------------------------------------------
 Center     Atomic      Atomic             Coordinates (Angstroms)
 Number     Number       Type             X           Y           Z
 ---------------------------------------------------------------------
      1         15           0        0.442065   -1.238529    0.112220
      2         15           0       -0.595135    1.287447    0.050720
      3          7           0        0.885138    0.408443    0.514190
      4          6           0        1.576018   -1.896154   -1.178080
      5          6           0        2.771760   -2.547339   -0.857230
      6          1           0        3.062511   -2.675478    0.176630
      7          6           0        3.593262   -3.034906   -1.867460
      8          1           0        4.514305   -3.543272   -1.610930
      9          6           0        3.235032   -2.872647   -3.202560
     10          1           0        3.875783   -3.257565   -3.986020
     11          6           0        2.049079   -2.222162   -3.529610
     12          1           0        1.764009   -2.101013   -4.567190
     13          6           0        1.221077   -1.741086   -2.522010
     14          1           0        0.287185   -1.254089   -2.775910
     15          6           0        0.736580   -2.336938    1.558790
     16          6           0        0.982898   -1.851107    2.842590
     17          1           0        1.102513   -0.791896    3.008350
     18          6           0        1.103651   -2.728096    3.916550
     19          1           0        1.309420   -2.337905    4.905500
     20          6           0        0.968167   -4.097527    3.721880
     21          1           0        1.062480   -4.778136    4.558500
     22          6           0        0.717279   -4.591308    2.444710
     23          1           0        0.615903   -5.657238    2.283550
     24          6           0        0.602375   -3.719038    1.369570
     25          1           0        0.424657   -4.123289    0.380130
     26          6           0       -0.211160    2.524059   -1.260110
     27          6           0        0.261435    3.815160   -0.996600
     28          1           0        0.395913    4.153041    0.021270
     29          6           0        0.562321    4.679722   -2.042620
     30          1           0        0.925677    5.676513   -1.825970
     31          6           0        0.395933    4.269521   -3.362000
     32          1           0        0.628650    4.947042   -4.173850
     33          6           0       -0.074482    2.989129   -3.634810
     34          1           0       -0.211091    2.667039   -4.659500
     35          6           0       -0.378598    2.123518   -2.590930
     36          1           0       -0.750044    1.129176   -2.805520
     37          6           0       -1.255999    2.232654    1.487020
     38          6           0       -1.223387    1.649454    2.758900
     39          1           0       -0.725783    0.700726    2.907170
     40          6           0       -1.840819    2.270292    3.836660
     41          1           0       -1.797107    1.812462    4.817000
     42          6           0       -2.523074    3.470479    3.656200
     43          1           0       -3.005746    3.953197    4.496480
     44          6           0       -2.591666    4.039759    2.390160
     45          1           0       -3.131950    4.965787    2.238480
     46          6           0       -1.966304    3.425501    1.308970
     47          1           0       -2.040296    3.881961    0.331590
     48         45           0       -1.741327   -0.664968   -0.461810
     49          6           0       -2.594979   -2.589251   -1.373980
     50          6           0       -2.761949   -2.633662   -0.007110
     51          6           0       -3.919250    0.038264   -0.299190
     52          6           0       -3.501531    0.189685   -1.603220
     53          1           0       -1.715577   -3.079888   -1.777310
     54          6           0       -3.678391   -2.256655   -2.383580
     55          1           0       -2.020607   -3.178449    0.567200
     56          6           0       -4.009541   -2.289707    0.768000
     57          6           0       -4.799435   -1.082660    0.219500
     58          1           0       -3.838924    0.905194    0.347350
     59          1           0       -3.168005    1.177667   -1.903850
     60          6           0       -3.759407   -0.757936   -2.749550
     61          1           0       -4.641339   -2.607459   -2.013050
     62          1           0       -3.485968   -2.823235   -3.296230
     63          1           0       -4.664507   -3.168689    0.817950
     64          1           0       -3.710451   -2.083036    1.797600
     65          1           0       -5.424467   -0.686933    1.021700
     66          1           0       -5.485314   -1.401663   -0.565030
     67          1           0       -4.738208   -0.540180   -3.194960
     68          1           0       -3.026638   -0.541903   -3.530540
     69          6           0        2.972644    1.577391   -0.125060
     70          6           0        2.357794    1.444809    2.189520
     71          6           0        3.348078    2.914423    0.573180
     72          1           0        2.345783    1.750209   -0.998790
     73          6           0        2.565868    2.931280    1.894870
     74          1           0        3.252676    1.020173    2.649650
     75          1           0        1.505745    1.246176    2.832260
     76          1           0        4.418388    2.928897    0.775250
     77          1           0        3.115595    3.769102   -0.061680
     78          1           0        3.104496    3.442112    2.693500
     79          1           0        1.599836    3.428796    1.782620
     80          7           0        2.181837    0.793128    0.872650
     81          6           0        4.208707    0.823557   -0.602160
     82          1           0        4.731984    1.451939   -1.339630
     83          1           0        3.920781   -0.107825   -1.101100
     84          6           0        6.283340   -0.044225    0.128990
     85          1           0        6.861048    0.610087   -0.535740
     86          1           0        6.850271   -0.210633    1.043360
     87          1           0        6.127894   -1.005796   -0.375610
     88          8           0        5.053188    0.552440    0.500700
 ---------------------------------------------------------------------

 SCF Done:  E(RB3LYP) =  -2452.97405218     A.U. after   16 cycles

      1  P    Isotropic =   194.0975   Anisotropy =   100.7716

      2  P    Isotropic =   192.1494   Anisotropy =   120.0641

      3  N    Isotropic =    85.0058   Anisotropy =   119.5510

      4  C    Isotropic =    40.9136   Anisotropy =   180.1882

      5  C    Isotropic =    43.2646   Anisotropy =   197.2596

      6  H    Isotropic =    24.3531   Anisotropy =    10.8449

      7  C    Isotropic =    49.0577   Anisotropy =   189.1547

      8  H    Isotropic =    24.3023   Anisotropy =     5.9370

      9  C    Isotropic =    44.6318   Anisotropy =   198.1013

     10  H    Isotropic =    24.0095   Anisotropy =     3.7370

     11  C    Isotropic =    49.9567   Anisotropy =   186.3021

     12  H    Isotropic =    24.0407   Anisotropy =     6.9641

     13  C    Isotropic =    41.7533   Anisotropy =   182.0665

     14  H    Isotropic =    23.1819   Anisotropy =    10.2550

     15  C    Isotropic =    43.2803   Anisotropy =   161.9174

     16  C    Isotropic =    48.0851   Anisotropy =   190.4358

     17  H    Isotropic =    23.1777   Anisotropy =     9.5491

     18  C    Isotropic =    49.5358   Anisotropy =   188.8179

     19  H    Isotropic =    23.8599   Anisotropy =     6.9311

     20  C    Isotropic =    46.5347   Anisotropy =   195.3322

     21  H    Isotropic =    23.9554   Anisotropy =     3.4952

     22  C    Isotropic =    48.9218   Anisotropy =   190.5065

     23  H    Isotropic =    24.1512   Anisotropy =     6.4182

     24  C    Isotropic =    48.7126   Anisotropy =   189.3666

     25  H    Isotropic =    24.9502   Anisotropy =    11.1230

     26  C    Isotropic =    45.3727   Anisotropy =   173.4661

     27  C    Isotropic =    46.0508   Anisotropy =   191.8401

     28  H    Isotropic =    23.7822   Anisotropy =     8.8071

     29  C    Isotropic =    49.4629   Anisotropy =   189.3892

     30  H    Isotropic =    24.1061   Anisotropy =     6.2999

     31  C    Isotropic =    44.1262   Anisotropy =   198.7309

     32  H    Isotropic =    23.9155   Anisotropy =     3.8956

     33  C    Isotropic =    48.5836   Anisotropy =   188.7782

     34  H    Isotropic =    23.9225   Anisotropy =     7.1227

     35  C    Isotropic =    42.0942   Anisotropy =   180.7481

     36  H    Isotropic =    23.1884   Anisotropy =    10.2316

     37  C    Isotropic =    43.2197   Anisotropy =   166.6129

     38  C    Isotropic =    46.6353   Anisotropy =   193.7433

     39  H    Isotropic =    23.2686   Anisotropy =     9.4005

     40  C    Isotropic =    49.0343   Anisotropy =   189.4928

     41  H    Isotropic =    23.9592   Anisotropy =     7.2577

     42  C    Isotropic =    45.8667   Anisotropy =   196.0535

     43  H    Isotropic =    24.0459   Anisotropy =     3.6995

     44  C    Isotropic =    49.3784   Anisotropy =   188.7837

     45  H    Isotropic =    24.2365   Anisotropy =     6.1412

     46  C    Isotropic =    48.2785   Anisotropy =   188.1024

     47  H    Isotropic =    24.5303   Anisotropy =    11.7122

     48  Rh   Isotropic =  -262.5368   Anisotropy =   295.2382

     49  C    Isotropic =    79.9413   Anisotropy =   120.3986

     50  C    Isotropic =    71.0964   Anisotropy =   126.2200

     51  C    Isotropic =    75.2113   Anisotropy =   127.0951

     52  C    Isotropic =    77.6178   Anisotropy =   115.5415

     53  H    Isotropic =    26.8562   Anisotropy =     6.5705

     54  C    Isotropic =   153.9649   Anisotropy =    25.6528

     55  H    Isotropic =    26.7377   Anisotropy =     5.3892

     56  C    Isotropic =   148.3413   Anisotropy =    28.7334

     57  C    Isotropic =   154.3355   Anisotropy =    24.9198

     58  H    Isotropic =    27.8213   Anisotropy =     5.9925

     59  H    Isotropic =    26.6308   Anisotropy =     4.1612

     60  C    Isotropic =   147.9931   Anisotropy =    28.8967

     61  H    Isotropic =    29.7164   Anisotropy =     9.9897

     62  H    Isotropic =    29.7745   Anisotropy =    11.7025

     63  H    Isotropic =    29.4378   Anisotropy =    12.7856

     64  H    Isotropic =    29.6843   Anisotropy =     6.7276

     65  H    Isotropic =    30.2903   Anisotropy =    11.0353

     66  H    Isotropic =    29.9527   Anisotropy =    10.0541

     67  H    Isotropic =    29.1053   Anisotropy =    12.9786

     68  H    Isotropic =    28.9817   Anisotropy =     8.1309

     69  C    Isotropic =   112.8866   Anisotropy =    53.6376

     70  C    Isotropic =   119.9781   Anisotropy =    62.2554

     71  C    Isotropic =   153.7051   Anisotropy =    29.3874

     72  H    Isotropic =    29.8000   Anisotropy =     8.3123

     73  C    Isotropic =   153.8164   Anisotropy =    22.9785

     74  H    Isotropic =    28.4291   Anisotropy =     8.7871

     75  H    Isotropic =    28.0939   Anisotropy =     4.1081

     76  H    Isotropic =    30.1201   Anisotropy =    10.3435

     77  H    Isotropic =    30.6541   Anisotropy =     8.0901

     78  H    Isotropic =    30.3695   Anisotropy =    12.2560

     79  H    Isotropic =    30.6819   Anisotropy =     7.0152

     80  N    Isotropic =   104.2079   Anisotropy =   112.0943

     81  C    Isotropic =   106.8335   Anisotropy =    54.6739

     82  H    Isotropic =    29.9592   Anisotropy =     3.9664

     83  H    Isotropic =    30.1132   Anisotropy =    10.6932

     84  C    Isotropic =   124.8783   Anisotropy =    92.1290

     85  H    Isotropic =    29.2243   Anisotropy =    10.9858

     86  H    Isotropic =    28.4991   Anisotropy =    11.1091

     87  H    Isotropic =    29.1731   Anisotropy =     8.2703

     88  O    Isotropic =   309.0440   Anisotropy =    35.4730

 The electronic state is 1-A.
 Alpha  occ. eigenvalues --  -77.25475 -77.25118 -19.20470 -14.46352 -14.43845
 Alpha  occ. eigenvalues --  -10.29738 -10.29550 -10.29316 -10.29035 -10.29012
 Alpha  occ. eigenvalues --  -10.28965 -10.28686 -10.28654 -10.28641 -10.28583
 Alpha  occ. eigenvalues --  -10.28548 -10.28511 -10.28419 -10.28243 -10.28221
 Alpha  occ. eigenvalues --  -10.28181 -10.28027 -10.28013 -10.27913 -10.27888
 Alpha  occ. eigenvalues --  -10.27885 -10.27855 -10.27763 -10.27569 -10.27551
 Alpha  occ. eigenvalues --  -10.27523 -10.27473 -10.27423 -10.27373 -10.27282
 Alpha  occ. eigenvalues --  -10.27184 -10.27134 -10.27093 -10.27068 -10.27059
 Alpha  occ. eigenvalues --  -10.26918 -10.25140 -10.24849  -6.71113  -6.70773
 Alpha  occ. eigenvalues --   -4.87481  -4.87290  -4.87150  -4.87031  -4.86939
 Alpha  occ. eigenvalues --   -4.86696  -3.31218  -2.08173  -2.07503  -2.04601
 Alpha  occ. eigenvalues --   -1.11336  -1.08188  -0.97058  -0.96580  -0.96225
 Alpha  occ. eigenvalues --   -0.95770  -0.94592  -0.94081  -0.88841  -0.87689
 Alpha  occ. eigenvalues --   -0.87623  -0.87061  -0.85663  -0.85397  -0.85099
 Alpha  occ. eigenvalues --   -0.85003  -0.84903  -0.84754  -0.84522  -0.83668
 Alpha  occ. eigenvalues --   -0.80020  -0.77772  -0.77504  -0.76357  -0.74516
 Alpha  occ. eigenvalues --   -0.72269  -0.71615  -0.71059  -0.70981  -0.70664
 Alpha  occ. eigenvalues --   -0.70387  -0.70243  -0.69941  -0.69298  -0.67602
 Alpha  occ. eigenvalues --   -0.67009  -0.65518  -0.64676  -0.62507  -0.62428
 Alpha  occ. eigenvalues --   -0.62133  -0.61901  -0.61110  -0.59666  -0.58778
 Alpha  occ. eigenvalues --   -0.58294  -0.56831  -0.56550  -0.56337  -0.56150
 Alpha  occ. eigenvalues --   -0.55962  -0.55887  -0.55830  -0.55549  -0.55326
 Alpha  occ. eigenvalues --   -0.55170  -0.54910  -0.54780  -0.54016  -0.53356
 Alpha  occ. eigenvalues --   -0.53122  -0.52769  -0.52657  -0.52496  -0.52419
 Alpha  occ. eigenvalues --   -0.52271  -0.52105  -0.51938  -0.51554  -0.51150
 Alpha  occ. eigenvalues --   -0.49691  -0.49163  -0.48656  -0.48406  -0.47837
 Alpha  occ. eigenvalues --   -0.47605  -0.47476  -0.47294  -0.47008  -0.46716
 Alpha  occ. eigenvalues --   -0.46507  -0.45851  -0.45704  -0.45427  -0.45256
 Alpha  occ. eigenvalues --   -0.45114  -0.44750  -0.44616  -0.44496  -0.43652
 Alpha  occ. eigenvalues --   -0.43423  -0.43126  -0.43025  -0.42920  -0.42712
 Alpha  occ. eigenvalues --   -0.41347  -0.41157  -0.39823  -0.37999  -0.37697
 Alpha  occ. eigenvalues --   -0.37485  -0.36745  -0.36547  -0.36329  -0.36043
 Alpha  occ. eigenvalues --   -0.35887  -0.35863  -0.35395  -0.34771  -0.34202
 Alpha  occ. eigenvalues --   -0.34012  -0.33660  -0.33459  -0.31632  -0.30323
 Alpha virt. eigenvalues --   -0.15667  -0.15168  -0.14425  -0.13115  -0.12261
 Alpha virt. eigenvalues --   -0.12120  -0.11634  -0.11000  -0.10513  -0.09992
 Alpha virt. eigenvalues --   -0.09064  -0.07623  -0.06151  -0.05814  -0.05708

 Mulliken charges:
               1
     1  P    0.538098
     2  P    0.436187
     3  N   -0.537957
     4  C   -0.287954
     5  C   -0.033264
     6  H    0.156612
     7  C   -0.073548
     8  H    0.136515
     9  C   -0.101397
    10  H    0.136515
    11  C   -0.105137
    12  H    0.129747
    13  C   -0.029291
    14  H    0.145914
    15  C   -0.139891
    16  C   -0.012800
    17  H    0.086209
    18  C   -0.131292
    19  H    0.129369
    20  C   -0.096950
    21  H    0.137207
    22  C   -0.077584
    23  H    0.133446
    24  C   -0.144382
    25  H    0.164712
    26  C   -0.256246
    27  C   -0.058788
    28  H    0.173937
    29  C   -0.114100
    30  H    0.136390
    31  C   -0.081827
    32  H    0.140051
    33  C   -0.124133
    34  H    0.130322
    35  C   -0.040444
    36  H    0.155539
    37  C   -0.164494
    38  C   -0.054569
    39  H    0.148354
    40  C   -0.122257
    41  H    0.130682
    42  C   -0.087146
    43  H    0.138553
    44  C   -0.110726
    45  H    0.135212
    46  C   -0.068896
    47  H    0.166147
    48  Rh  -0.709718
    49  C   -0.014072
    50  C   -0.118899
    51  C   -0.019205
    52  C   -0.111379
    53  H    0.189931
    54  C   -0.352758
    55  H    0.216939
    56  C   -0.220448
    57  C   -0.354624
    58  H    0.199620
    59  H    0.206137
    60  C   -0.220849
    61  H    0.168437
    62  H    0.167886
    63  H    0.170521
    64  H    0.135160
    65  H    0.168524
    66  H    0.165390
    67  H    0.171454
    68  H    0.128211
    69  C   -0.037139
    70  C   -0.175971
    71  C   -0.274765
    72  H    0.210394
    73  C   -0.287894
    74  H    0.159362
    75  H    0.139128
    76  H    0.164089
    77  H    0.148704
    78  H    0.155220
    79  H    0.132214
    80  N   -0.002371
    81  C   -0.163625
    82  H    0.122180
    83  H    0.129147
    84  C   -0.196921
    85  H    0.112755
    86  H    0.140665
    87  H    0.100043
    88  O   -0.272114
 Sum of Mulliken charges =   1.00000

 Dipole moment (field-independent basis, Debye):
    X=             -1.3410    Y=              0.1218    Z=             -1.2010  Tot=              1.8043
 Quadrupole moment (field-independent basis, Debye-Ang):
   XX=           -237.7166   YY=           -231.9831   ZZ=           -237.2393
   XY=             -4.3534   XZ=             -5.8595   YZ=             -1.8462

 Summary of Natural Population Analysis:

                                       Natural Population
                Natural  -----------------------------------------------
    Atom  No    Charge         Core      Valence    Rydberg      Total
 -----------------------------------------------------------------------
      P    1    1.34583      9.99592     3.59690    0.06135    13.65417
      P    2    1.29935      9.99588     3.64443    0.06034    13.70065
      N    3   -0.80889      1.99956     5.78129    0.02804     7.80889
      C    4   -0.37564      1.99898     4.35036    0.02630     6.37564
      C    5   -0.17973      1.99910     4.16351    0.01713     6.17973
      H    6    0.22902      0.00000     0.76864    0.00234     0.77098
      C    7   -0.20086      1.99919     4.18613    0.01555     6.20086
      H    8    0.22253      0.00000     0.77610    0.00137     0.77747
      C    9   -0.17335      1.99920     4.15944    0.01470     6.17335
      H   10    0.22228      0.00000     0.77654    0.00118     0.77772
      C   11   -0.20171      1.99919     4.18786    0.01466     6.20171
      H   12    0.22001      0.00000     0.77873    0.00126     0.77999
      C   13   -0.17841      1.99909     4.16393    0.01538     6.17841
      H   14    0.21760      0.00000     0.78036    0.00204     0.78240
      C   15   -0.35965      1.99898     4.33542    0.02526     6.35965
      C   16   -0.18937      1.99908     4.17449    0.01579     6.18937
      H   17    0.21268      0.00000     0.78493    0.00239     0.78732
      C   18   -0.19153      1.99920     4.17790    0.01443     6.19153
      H   19    0.22007      0.00000     0.77868    0.00125     0.77993
      C   20   -0.18191      1.99920     4.16804    0.01467     6.18191
      H   21    0.22232      0.00000     0.77650    0.00118     0.77768
      C   22   -0.19279      1.99919     4.17887    0.01472     6.19279
      H   23    0.22208      0.00000     0.77668    0.00124     0.77792
      C   24   -0.20182      1.99910     4.18759    0.01513     6.20182
      H   25    0.21782      0.00000     0.78036    0.00181     0.78218
      C   26   -0.37912      1.99897     4.35520    0.02494     6.37912
      C   27   -0.19112      1.99909     4.17489    0.01714     6.19112
      H   28    0.22153      0.00000     0.77588    0.00259     0.77847
      C   29   -0.19756      1.99919     4.18325    0.01512     6.19756
      H   30    0.22388      0.00000     0.77484    0.00127     0.77612
      C   31   -0.17133      1.99920     4.15755    0.01458     6.17133
      H   32    0.22386      0.00000     0.77498    0.00116     0.77614
      C   33   -0.19809      1.99919     4.18437    0.01452     6.19809
      H   34    0.22160      0.00000     0.77715    0.00125     0.77840
      C   35   -0.17946      1.99910     4.16505    0.01531     6.17946
      H   36    0.21932      0.00000     0.77832    0.00236     0.78068
      C   37   -0.36819      1.99897     4.34397    0.02525     6.36819
      C   38   -0.18964      1.99909     4.17507    0.01548     6.18964
      H   39    0.21584      0.00000     0.78176    0.00240     0.78416
      C   40   -0.19303      1.99919     4.17935    0.01448     6.19303
      H   41    0.22114      0.00000     0.77762    0.00124     0.77886
      C   42   -0.17842      1.99920     4.16455    0.01467     6.17842
      H   43    0.22316      0.00000     0.77567    0.00117     0.77684
      C   44   -0.19284      1.99920     4.17889    0.01475     6.19284
      H   45    0.22297      0.00000     0.77580    0.00123     0.77703
      C   46   -0.19896      1.99910     4.18477    0.01509     6.19896
      H   47    0.22241      0.00000     0.77580    0.00180     0.77759
     Rh   48   -0.42748     35.98531     9.41246    0.02970    45.42748
      C   49   -0.18213      1.99907     4.16340    0.01966     6.18213
      C   50   -0.15912      1.99910     4.13924    0.02079     6.15912
      C   51   -0.16664      1.99907     4.14799    0.01958     6.16664
      C   52   -0.17198      1.99908     4.15267    0.02023     6.17198
      H   53    0.22679      0.00000     0.77126    0.00194     0.77321
      C   54   -0.42320      1.99936     4.41198    0.01186     6.42320
      H   55    0.23102      0.00000     0.76657    0.00242     0.76898
      C   56   -0.41904      1.99935     4.40673    0.01296     6.41904
      C   57   -0.42327      1.99936     4.41211    0.01180     6.42327
      H   58    0.23031      0.00000     0.76763    0.00206     0.76969
      H   59    0.22725      0.00000     0.77078    0.00197     0.77275
      C   60   -0.41739      1.99935     4.40526    0.01277     6.41739
      H   61    0.21505      0.00000     0.78298    0.00197     0.78495
      H   62    0.22750      0.00000     0.77100    0.00150     0.77250
      H   63    0.23284      0.00000     0.76529    0.00188     0.76716
      H   64    0.21927      0.00000     0.77924    0.00149     0.78073
      H   65    0.22900      0.00000     0.76951    0.00149     0.77100
      H   66    0.21347      0.00000     0.78454    0.00199     0.78653
      H   67    0.23310      0.00000     0.76498    0.00192     0.76690
      H   68    0.21147      0.00000     0.78694    0.00159     0.78853
      C   69   -0.07612      1.99931     4.05813    0.01867     6.07612
      C   70   -0.22764      1.99933     4.21443    0.01387     6.22764
      C   71   -0.41372      1.99940     4.40361    0.01071     6.41372
      H   72    0.21173      0.00000     0.78548    0.00279     0.78827
      C   73   -0.40304      1.99943     4.39448    0.00913     6.40304
      H   74    0.21383      0.00000     0.78439    0.00178     0.78617
      H   75    0.19880      0.00000     0.79902    0.00218     0.80120
      H   76    0.22426      0.00000     0.77396    0.00177     0.77574
      H   77    0.21439      0.00000     0.78419    0.00143     0.78561
      H   78    0.22110      0.00000     0.77743    0.00147     0.77890
      H   79    0.18810      0.00000     0.80983    0.00207     0.81190
      N   80   -0.27483      1.99954     5.23841    0.03688     7.27483
      C   81   -0.06938      1.99921     4.05305    0.01711     6.06938
      H   82    0.16014      0.00000     0.83679    0.00306     0.83986
      H   83    0.17146      0.00000     0.82523    0.00331     0.82854
      C   84   -0.24754      1.99932     4.23400    0.01422     6.24754
      H   85    0.16206      0.00000     0.83562    0.00233     0.83794
      H   86    0.19446      0.00000     0.80423    0.00130     0.80554
      H   87    0.15741      0.00000     0.84023    0.00236     0.84259
      O   88   -0.50620      1.99980     6.49032    0.01608     8.50620
 =======================================================================
   * Total *    1.00000    137.94478   229.12382    0.93140   368.00000

 Normal termination of Gaussian 16 at Wed Nov  6 01:50:40 2024.
