 Gaussian 16, Revision B.01,
 Gaussian 16:  ES64L-G16RevB.01 20-Dec-2017

 ------------------------------------------
 # nmr=giao b3lyp/genecp pop=nbo scfcyc=200
 ------------------------------------------

 -------------
 Ligand 74 SPE
 -------------
 Symbolic Z-matrix:
 Charge =  1 Multiplicity = 1

                         Standard orientation:
 ---------------------------------------------------------------------
 Center     Atomic      Atomic             Coordinates (Angstroms)
 Number     Number       Type             X           Y           Z
 ---------------------------------------------------------------------
      1         15           0       -0.060258   -1.325560   -0.138579
      2         15           0        0.419068    1.292231    0.309321
      3          7           0       -0.904521    0.211209   -0.088359
      4          6           0       -0.628906   -2.445531    1.216061
      5          6           0       -1.561855   -3.469172    1.020721
      6          1           0       -1.998405   -3.632393    0.044781
      7          6           0       -1.938033   -4.285913    2.080571
      8          1           0       -2.659972   -5.076274    1.917511
      9          6           0       -1.391594   -4.089472    3.345501
     10          1           0       -1.687023   -4.727693    4.168781
     11          6           0       -0.459695   -3.076621    3.547881
     12          1           0       -0.025306   -2.925420    4.528131
     13          6           0       -0.074557   -2.264780    2.487381
     14          1           0        0.667182   -1.491319    2.643051
     15          6           0       -0.440917   -2.221881   -1.697289
     16          6           0       -1.095608   -1.619482   -2.772359
     17          1           0       -1.504179   -0.622202   -2.683979
     18          6           0       -1.258777   -2.318102   -3.966299
     19          1           0       -1.780957   -1.846223   -4.789249
     20          6           0       -0.761675   -3.608551   -4.102829
     21          1           0       -0.890474   -4.146331   -5.033689
     22          6           0       -0.099974   -4.210530   -3.035529
     23          1           0        0.286588   -5.217410   -3.131889
     24          6           0        0.062255   -3.523110   -1.839689
     25          1           0        0.568406   -4.012219   -1.015929
     26          6           0        0.010857    2.092600    1.914801
     27          6           0       -0.959915    3.096648    2.028281
     28          1           0       -1.481236    3.458658    1.151941
     29          6           0       -1.261426    3.638498    3.272451
     30          1           0       -2.015197    4.411837    3.351231
     31          6           0       -0.597155    3.193149    4.411681
     32          1           0       -0.831596    3.622269    5.377751
     33          6           0        0.370306    2.199581    4.307351
     34          1           0        0.893097    1.854831    5.190651
     35          6           0        0.670937    1.650711    3.065751
     36          1           0        1.425128    0.877972    2.986511
     37          6           0        0.484966    2.652921   -0.927209
     38          6           0        0.293996    2.365240   -2.282779
     39          1           0       -0.018972    1.377640   -2.591839
     40          6           0        0.491415    3.350481   -3.242229
     41          1           0        0.326305    3.119731   -4.287169
     42          6           0        0.903243    4.625481   -2.863829
     43          1           0        1.061831    5.390002   -3.614029
     44          6           0        1.116132    4.912612   -1.519899
     45          1           0        1.441201    5.900692   -1.219059
     46          6           0        0.909744    3.933161   -0.553549
     47          1           0        1.079453    4.174192    0.487341
     48         45           0        2.043660   -0.338197    0.117441
     49          6           0        3.482013   -2.117445    0.345331
     50          6           0        3.298663   -1.864065   -0.995579
     51          6           0        3.911528    0.914656   -0.314489
     52          6           0        3.820959    0.709176    1.045271
     53          1           0        2.851084   -2.877266    0.794471
     54          6           0        4.695092   -1.708843    1.160091
     55          1           0        2.559994   -2.460706   -1.519329
     56          6           0        4.207461   -1.073703   -1.904069
     57          6           0        4.842160    0.175088   -1.256559
     58          1           0        3.491727    1.836315   -0.702119
     59          1           0        3.383217    1.507675    1.635691
     60          6           0        4.555050   -0.334453    1.851891
     61          1           0        5.580892   -1.723191    0.525441
     62          1           0        4.865804   -2.464522    1.928641
     63          1           0        4.996003   -1.729182   -2.294619
     64          1           0        3.619111   -0.767054   -2.771199
     65          1           0        5.143268    0.859648   -2.051179
     66          1           0        5.757430   -0.093421   -0.729209
     67          1           0        5.548540    0.042279    2.125551
     68          1           0        4.019571   -0.464064    2.795331
     69          6           0       -2.335621    0.588546    0.031391
     70          1           0       -2.443442    1.174146    0.945551
     71          6           0       -2.755843    1.485706   -1.142389
     72          6           0       -3.300339   -0.602475    0.119981
     73          1           0       -3.195818   -1.221635   -0.773759
     74          1           0       -3.011918   -1.206935    0.979071
     75          6           0       -3.680116    3.587954   -1.726099
     76          1           0       -4.013037    4.469284   -1.186539
     77          1           0       -2.880786    3.837745   -2.421689
     78          1           0       -4.507045    3.133283   -2.269049
     79          8           0       -2.733302    1.156856   -2.302839
     80          8           0       -3.189124    2.678925   -0.711769
     81          6           0       -4.765480   -0.179027    0.281041
     82          1           0       -5.091491    0.389412   -0.595829
     83          1           0       -4.860311    0.494402    1.139671
     84          6           0       -5.703298   -1.375209    0.470011
     85          1           0       -5.388457   -1.943778    1.351331
     86          1           0       -5.600277   -2.051599   -0.385009
     87          6           0       -7.168179   -0.966361    0.622741
     88          1           0       -7.523260   -0.427922   -0.259419
     89          1           0       -7.809587   -1.839032    0.757061
     90          1           0       -7.309780   -0.315031    1.488791
 ---------------------------------------------------------------------

 SCF Done:  E(RB3LYP) =  -2512.25425318     A.U. after   16 cycles

      1  P    Isotropic =   218.1387   Anisotropy =    70.8530

      2  P    Isotropic =   217.5715   Anisotropy =    86.2129

      3  N    Isotropic =   139.8240   Anisotropy =    74.4693

      4  C    Isotropic =    40.7827   Anisotropy =   175.3033

      5  C    Isotropic =    45.0525   Anisotropy =   194.8926

      6  H    Isotropic =    24.4567   Anisotropy =    11.1539

      7  C    Isotropic =    49.7668   Anisotropy =   187.8780

      8  H    Isotropic =    24.3843   Anisotropy =     6.1832

      9  C    Isotropic =    44.6900   Anisotropy =   197.5785

     10  H    Isotropic =    24.0999   Anisotropy =     3.9472

     11  C    Isotropic =    49.7780   Anisotropy =   186.3880

     12  H    Isotropic =    24.1256   Anisotropy =     7.2776

     13  C    Isotropic =    41.4070   Anisotropy =   183.1938

     14  H    Isotropic =    23.0777   Anisotropy =     9.9076

     15  C    Isotropic =    44.1899   Anisotropy =   158.8103

     16  C    Isotropic =    45.2661   Anisotropy =   203.6237

     17  H    Isotropic =    21.4702   Anisotropy =     8.6217

     18  C    Isotropic =    47.7819   Anisotropy =   192.3966

     19  H    Isotropic =    23.6614   Anisotropy =     6.9442

     20  C    Isotropic =    45.9253   Anisotropy =   195.7900

     21  H    Isotropic =    23.9016   Anisotropy =     3.6273

     22  C    Isotropic =    50.0961   Anisotropy =   188.5484

     23  H    Isotropic =    24.1557   Anisotropy =     6.2413

     24  C    Isotropic =    50.0322   Anisotropy =   187.6825

     25  H    Isotropic =    24.8621   Anisotropy =    10.6833

     26  C    Isotropic =    48.2026   Anisotropy =   170.9125

     27  C    Isotropic =    43.4373   Anisotropy =   194.2133

     28  H    Isotropic =    23.7882   Anisotropy =     9.0648

     29  C    Isotropic =    49.7919   Anisotropy =   188.2621

     30  H    Isotropic =    24.0517   Anisotropy =     6.4871

     31  C    Isotropic =    43.9502   Anisotropy =   199.5865

     32  H    Isotropic =    23.8358   Anisotropy =     4.0326

     33  C    Isotropic =    48.6778   Anisotropy =   188.6188

     34  H    Isotropic =    23.8280   Anisotropy =     7.0690

     35  C    Isotropic =    41.9094   Anisotropy =   180.9380

     36  H    Isotropic =    23.2270   Anisotropy =    10.2268

     37  C    Isotropic =    44.9759   Anisotropy =   162.3865

     38  C    Isotropic =    45.3296   Anisotropy =   201.4795

     39  H    Isotropic =    23.4630   Anisotropy =     8.6362

     40  C    Isotropic =    49.2335   Anisotropy =   190.5614

     41  H    Isotropic =    23.9876   Anisotropy =     7.0184

     42  C    Isotropic =    46.2266   Anisotropy =   195.8772

     43  H    Isotropic =    24.1264   Anisotropy =     3.6303

     44  C    Isotropic =    49.8441   Anisotropy =   188.6628

     45  H    Isotropic =    24.3737   Anisotropy =     6.0913

     46  C    Isotropic =    48.6870   Anisotropy =   188.5535

     47  H    Isotropic =    24.9777   Anisotropy =    11.8393

     48  Rh   Isotropic =  -277.4987   Anisotropy =   307.4330

     49  C    Isotropic =    78.6097   Anisotropy =   122.3190

     50  C    Isotropic =    69.2484   Anisotropy =   128.9429

     51  C    Isotropic =    74.8435   Anisotropy =   128.1581

     52  C    Isotropic =    78.4400   Anisotropy =   114.1817

     53  H    Isotropic =    27.0484   Anisotropy =     6.1448

     54  C    Isotropic =   154.1781   Anisotropy =    25.5287

     55  H    Isotropic =    26.7964   Anisotropy =     5.5745

     56  C    Isotropic =   148.6246   Anisotropy =    28.3493

     57  C    Isotropic =   154.1341   Anisotropy =    24.7776

     58  H    Isotropic =    27.8197   Anisotropy =     5.5698

     59  H    Isotropic =    26.4541   Anisotropy =     4.7926

     60  C    Isotropic =   147.7755   Anisotropy =    29.1683

     61  H    Isotropic =    29.8076   Anisotropy =     9.8617

     62  H    Isotropic =    29.8744   Anisotropy =    11.5696

     63  H    Isotropic =    29.4783   Anisotropy =    12.6341

     64  H    Isotropic =    29.6256   Anisotropy =     6.5511

     65  H    Isotropic =    30.2774   Anisotropy =    10.8680

     66  H    Isotropic =    29.9499   Anisotropy =    10.0061

     67  H    Isotropic =    29.0827   Anisotropy =    12.9373

     68  H    Isotropic =    28.9569   Anisotropy =     8.2308

     69  C    Isotropic =   113.9070   Anisotropy =    34.9912

     70  H    Isotropic =    28.2796   Anisotropy =     5.7431

     71  C    Isotropic =     0.1844   Anisotropy =   105.2645

     72  C    Isotropic =   148.7663   Anisotropy =    20.8973

     73  H    Isotropic =    30.3625   Anisotropy =     7.1511

     74  H    Isotropic =    30.8967   Anisotropy =    11.1349

     75  C    Isotropic =   129.7687   Anisotropy =    76.1553

     76  H    Isotropic =    28.6866   Anisotropy =     9.3165

     77  H    Isotropic =    28.9878   Anisotropy =     6.2026

     78  H    Isotropic =    28.3142   Anisotropy =    10.3200

     79  O    Isotropic =   -87.3392   Anisotropy =   602.7915

     80  O    Isotropic =   113.9985   Anisotropy =   146.3373

     81  C    Isotropic =   151.7144   Anisotropy =    33.6579

     82  H    Isotropic =    31.2719   Anisotropy =     5.8535

     83  H    Isotropic =    31.3529   Anisotropy =     5.3212

     84  C    Isotropic =   156.9592   Anisotropy =    25.4155

     85  H    Isotropic =    31.2421   Anisotropy =     5.6033

     86  H    Isotropic =    31.0048   Anisotropy =     4.7207

     87  C    Isotropic =   169.3425   Anisotropy =    30.6561

     88  H    Isotropic =    31.2841   Anisotropy =     8.9077

     89  H    Isotropic =    30.9178   Anisotropy =    12.0234

     90  H    Isotropic =    31.3513   Anisotropy =     8.8868

 The electronic state is 1-A.
 Alpha  occ. eigenvalues --  -77.25874 -77.25650 -19.27176 -19.21189 -14.44708
 Alpha  occ. eigenvalues --  -10.39701 -10.32543 -10.31205 -10.29500 -10.29220
 Alpha  occ. eigenvalues --  -10.29207 -10.28975 -10.28703 -10.28662 -10.28579
 Alpha  occ. eigenvalues --  -10.28571 -10.28534 -10.28357 -10.28221 -10.28042
 Alpha  occ. eigenvalues --  -10.28029 -10.27860 -10.27859 -10.27807 -10.27728
 Alpha  occ. eigenvalues --  -10.27664 -10.27594 -10.27474 -10.27383 -10.27379
 Alpha  occ. eigenvalues --  -10.27336 -10.27268 -10.27208 -10.27081 -10.27067
 Alpha  occ. eigenvalues --  -10.27051 -10.27018 -10.26914 -10.26889 -10.26728
 Alpha  occ. eigenvalues --  -10.26694 -10.25201 -10.24219 -10.22617  -6.71442
 Alpha  occ. eigenvalues --   -6.71290  -4.87853  -4.87677  -4.87604  -4.87459
 Alpha  occ. eigenvalues --   -4.87349  -4.87203  -3.31281  -2.08264  -2.07563
 Alpha  occ. eigenvalues --   -2.04647  -1.20748  -1.12032  -1.02185  -0.96639
 Alpha  occ. eigenvalues --   -0.96299  -0.95954  -0.95613  -0.94121  -0.90269
 Alpha  occ. eigenvalues --   -0.88860  -0.87691  -0.87383  -0.86853  -0.85499
 Alpha  occ. eigenvalues --   -0.85275  -0.85174  -0.84923  -0.84757  -0.84567
 Alpha  occ. eigenvalues --   -0.84472  -0.82064  -0.80042  -0.78148  -0.77507
 Alpha  occ. eigenvalues --   -0.76336  -0.73288  -0.71434  -0.71097  -0.71004
 Alpha  occ. eigenvalues --   -0.70819  -0.70333  -0.70222  -0.70167  -0.69852
 Alpha  occ. eigenvalues --   -0.67863  -0.67264  -0.66033  -0.65527  -0.64966
 Alpha  occ. eigenvalues --   -0.62778  -0.62220  -0.61989  -0.61909  -0.61117
 Alpha  occ. eigenvalues --   -0.60741  -0.59659  -0.58564  -0.58288  -0.56845
 Alpha  occ. eigenvalues --   -0.56766  -0.56352  -0.56060  -0.55945  -0.55902
 Alpha  occ. eigenvalues --   -0.55618  -0.55336  -0.55172  -0.54972  -0.54767
 Alpha  occ. eigenvalues --   -0.54151  -0.53536  -0.53337  -0.53055  -0.52895
 Alpha  occ. eigenvalues --   -0.52473  -0.52371  -0.52246  -0.52187  -0.51817
 Alpha  occ. eigenvalues --   -0.51540  -0.51117  -0.50206  -0.49829  -0.48510
 Alpha  occ. eigenvalues --   -0.48463  -0.48277  -0.48107  -0.47812  -0.47511
 Alpha  occ. eigenvalues --   -0.47358  -0.47189  -0.46478  -0.46314  -0.46085
 Alpha  occ. eigenvalues --   -0.45679  -0.45573  -0.45180  -0.45094  -0.44817
 Alpha  occ. eigenvalues --   -0.44607  -0.44331  -0.44218  -0.43853  -0.43555
 Alpha  occ. eigenvalues --   -0.43370  -0.42990  -0.42724  -0.41741  -0.41300
 Alpha  occ. eigenvalues --   -0.40980  -0.40628  -0.40496  -0.38906  -0.37919
 Alpha  occ. eigenvalues --   -0.37513  -0.37256  -0.36504  -0.36339  -0.36133
 Alpha  occ. eigenvalues --   -0.35908  -0.35823  -0.35527  -0.35175  -0.34521
 Alpha  occ. eigenvalues --   -0.34167  -0.33959  -0.33475  -0.30327
 Alpha virt. eigenvalues --   -0.15697  -0.14905  -0.14615  -0.13267  -0.12169
 Alpha virt. eigenvalues --   -0.11997  -0.11481  -0.10789  -0.10449  -0.10034
 Alpha virt. eigenvalues --   -0.09599  -0.09046  -0.07364  -0.05947  -0.05665

 Mulliken charges:
               1
     1  P    0.441669
     2  P    0.406116
     3  N   -0.475318
     4  C   -0.294592
     5  C   -0.032352
     6  H    0.168183
     7  C   -0.096774
     8  H    0.135977
     9  C   -0.086769
    10  H    0.138403
    11  C   -0.116912
    12  H    0.128374
    13  C    0.007275
    14  H    0.130022
    15  C   -0.146178
    16  C   -0.069259
    17  H    0.219620
    18  C   -0.141761
    19  H    0.132266
    20  C   -0.086264
    21  H    0.136139
    22  C   -0.084711
    23  H    0.132687
    24  C   -0.164034
    25  H    0.167879
    26  C   -0.242479
    27  C   -0.050774
    28  H    0.193781
    29  C   -0.105516
    30  H    0.135161
    31  C   -0.078996
    32  H    0.138893
    33  C   -0.126529
    34  H    0.131068
    35  C   -0.068873
    36  H    0.170565
    37  C   -0.183143
    38  C   -0.022593
    39  H    0.147202
    40  C   -0.134167
    41  H    0.131594
    42  C   -0.086279
    43  H    0.137365
    44  C   -0.111401
    45  H    0.134135
    46  C   -0.059697
    47  H    0.158070
    48  Rh  -0.665739
    49  C    0.000867
    50  C   -0.124734
    51  C   -0.015702
    52  C   -0.107806
    53  H    0.184770
    54  C   -0.355793
    55  H    0.221153
    56  C   -0.221292
    57  C   -0.355914
    58  H    0.200535
    59  H    0.201537
    60  C   -0.222926
    61  H    0.168143
    62  H    0.168781
    63  H    0.171180
    64  H    0.135823
    65  H    0.168792
    66  H    0.165363
    67  H    0.171596
    68  H    0.130382
    69  C    0.054302
    70  H    0.202804
    71  C    0.197974
    72  C   -0.329069
    73  H    0.153362
    74  H    0.173904
    75  C   -0.183987
    76  H    0.143623
    77  H    0.150699
    78  H    0.147172
    79  O   -0.323925
    80  O   -0.194668
    81  C   -0.256986
    82  H    0.121776
    83  H    0.119970
    84  C   -0.188742
    85  H    0.111331
    86  H    0.110272
    87  C   -0.351339
    88  H    0.115565
    89  H    0.135897
    90  H    0.113974
 Sum of Mulliken charges =   1.00000

 Dipole moment (field-independent basis, Debye):
    X=              1.5483    Y=              0.6929    Z=              1.5557  Tot=              2.3016
 Quadrupole moment (field-independent basis, Debye-Ang):
   XX=           -243.5056   YY=           -231.8988   ZZ=           -247.0585
   XY=             -4.5917   XZ=             -0.2126   YZ=             -1.6092

 Summary of Natural Population Analysis:

                                       Natural Population
                Natural  -----------------------------------------------
    Atom  No    Charge         Core      Valence    Rydberg      Total
 -----------------------------------------------------------------------
      P    1    1.34515      9.99599     3.59692    0.06194    13.65485
      P    2    1.34941      9.99595     3.59193    0.06271    13.65059
      N    3   -0.98305      1.99957     5.96043    0.02304     7.98305
      C    4   -0.37449      1.99897     4.35030    0.02522     6.37449
      C    5   -0.18555      1.99909     4.17065    0.01580     6.18555
      H    6    0.22549      0.00000     0.77251    0.00200     0.77451
      C    7   -0.19732      1.99919     4.18324    0.01488     6.19732
      H    8    0.22324      0.00000     0.77552    0.00124     0.77676
      C    9   -0.17199      1.99921     4.15820    0.01459     6.17199
      H   10    0.22266      0.00000     0.77616    0.00118     0.77734
      C   11   -0.19900      1.99919     4.18532    0.01449     6.19900
      H   12    0.22022      0.00000     0.77853    0.00125     0.77978
      C   13   -0.17786      1.99909     4.16320    0.01557     6.17786
      H   14    0.21867      0.00000     0.77921    0.00212     0.78133
      C   15   -0.37155      1.99898     4.34796    0.02461     6.37155
      C   16   -0.20393      1.99909     4.18911    0.01573     6.20393
      H   17    0.24880      0.00000     0.74886    0.00233     0.75120
      C   18   -0.18863      1.99920     4.17492    0.01452     6.18863
      H   19    0.22228      0.00000     0.77650    0.00122     0.77772
      C   20   -0.18132      1.99920     4.16750    0.01462     6.18132
      H   21    0.22171      0.00000     0.77711    0.00118     0.77829
      C   22   -0.19545      1.99919     4.18146    0.01480     6.19545
      H   23    0.22166      0.00000     0.77709    0.00125     0.77834
      C   24   -0.20728      1.99910     4.19296    0.01522     6.20728
      H   25    0.21713      0.00000     0.78091    0.00195     0.78287
      C   26   -0.37952      1.99898     4.35578    0.02476     6.37952
      C   27   -0.19348      1.99910     4.17835    0.01604     6.19348
      H   28    0.23118      0.00000     0.76676    0.00206     0.76882
      C   29   -0.19545      1.99919     4.18159    0.01466     6.19545
      H   30    0.22316      0.00000     0.77561    0.00124     0.77684
      C   31   -0.16996      1.99921     4.15631    0.01444     6.16996
      H   32    0.22322      0.00000     0.77562    0.00117     0.77678
      C   33   -0.19899      1.99919     4.18522    0.01457     6.19899
      H   34    0.22117      0.00000     0.77759    0.00124     0.77883
      C   35   -0.17908      1.99910     4.16443    0.01554     6.17908
      H   36    0.21709      0.00000     0.78062    0.00230     0.78291
      C   37   -0.37387      1.99898     4.34855    0.02633     6.37387
      C   38   -0.18521      1.99910     4.16812    0.01798     6.18521
      H   39    0.22741      0.00000     0.77012    0.00247     0.77259
      C   40   -0.19559      1.99919     4.18108    0.01531     6.19559
      H   41    0.22260      0.00000     0.77615    0.00125     0.77740
      C   42   -0.18127      1.99920     4.16729    0.01478     6.18127
      H   43    0.22212      0.00000     0.77674    0.00114     0.77788
      C   44   -0.19652      1.99920     4.18229    0.01503     6.19652
      H   45    0.22230      0.00000     0.77648    0.00122     0.77770
      C   46   -0.19748      1.99911     4.18262    0.01575     6.19748
      H   47    0.22218      0.00000     0.77600    0.00182     0.77782
     Rh   48   -0.41492     35.98533     9.40053    0.02905    45.41492
      C   49   -0.18149      1.99908     4.16297    0.01945     6.18149
      C   50   -0.15888      1.99910     4.13910    0.02068     6.15888
      C   51   -0.16395      1.99907     4.14539    0.01949     6.16395
      C   52   -0.17390      1.99908     4.15465    0.02017     6.17390
      H   53    0.22749      0.00000     0.77065    0.00186     0.77251
      C   54   -0.42309      1.99936     4.41191    0.01183     6.42309
      H   55    0.23207      0.00000     0.76553    0.00240     0.76793
      C   56   -0.41929      1.99935     4.40705    0.01289     6.41929
      C   57   -0.42317      1.99936     4.41206    0.01175     6.42317
      H   58    0.23090      0.00000     0.76709    0.00200     0.76910
      H   59    0.22581      0.00000     0.77222    0.00197     0.77419
      C   60   -0.41711      1.99935     4.40504    0.01272     6.41711
      H   61    0.21499      0.00000     0.78304    0.00197     0.78501
      H   62    0.22808      0.00000     0.77042    0.00149     0.77192
      H   63    0.23309      0.00000     0.76504    0.00187     0.76691
      H   64    0.21998      0.00000     0.77856    0.00147     0.78002
      H   65    0.22933      0.00000     0.76918    0.00149     0.77067
      H   66    0.21349      0.00000     0.78452    0.00199     0.78651
      H   67    0.23312      0.00000     0.76496    0.00192     0.76688
      H   68    0.21171      0.00000     0.78672    0.00157     0.78829
      C   69   -0.13870      1.99914     4.11166    0.02791     6.13870
      H   70    0.22123      0.00000     0.77589    0.00288     0.77877
      C   71    0.76083      1.99941     3.19291    0.04685     5.23917
      C   72   -0.39081      1.99938     4.37955    0.01187     6.39081
      H   73    0.21195      0.00000     0.78516    0.00290     0.78805
      H   74    0.21752      0.00000     0.77988    0.00260     0.78248
      C   75   -0.26520      1.99926     4.25202    0.01392     6.26520
      H   76    0.19938      0.00000     0.79943    0.00120     0.80062
      H   77    0.19651      0.00000     0.80177    0.00173     0.80349
      H   78    0.19691      0.00000     0.80149    0.00161     0.80309
      O   79   -0.58704      1.99974     6.57474    0.01256     8.58704
      O   80   -0.47428      1.99975     6.46045    0.01408     8.47428
      C   81   -0.37862      1.99942     4.36948    0.00972     6.37862
      H   82    0.19423      0.00000     0.80346    0.00230     0.80577
      H   83    0.19496      0.00000     0.80304    0.00200     0.80504
      C   84   -0.37764      1.99945     4.36813    0.01006     6.37764
      H   85    0.19230      0.00000     0.80603    0.00166     0.80770
      H   86    0.19354      0.00000     0.80483    0.00163     0.80646
      C   87   -0.58745      1.99947     4.58202    0.00596     6.58745
      H   88    0.19975      0.00000     0.79887    0.00138     0.80025
      H   89    0.21210      0.00000     0.78682    0.00108     0.78790
      H   90    0.19919      0.00000     0.79943    0.00138     0.80081
 =======================================================================
   * Total *    1.00000    139.94468   235.11352    0.94181   376.00000

 Normal termination of Gaussian 16 at Wed Nov  6 02:03:21 2024.
