 Gaussian 16, Revision B.01,
 Gaussian 16:  ES64L-G16RevB.01 20-Dec-2017

 ------------------------------------------
 # nmr=giao b3lyp/genecp pop=nbo scfcyc=200
 ------------------------------------------

 -------------
 Ligand 78 SPE
 -------------
 Symbolic Z-matrix:
 Charge =  1 Multiplicity = 1

                         Standard orientation:
 ---------------------------------------------------------------------
 Center     Atomic      Atomic             Coordinates (Angstroms)
 Number     Number       Type             X           Y           Z
 ---------------------------------------------------------------------
      1         45           0       -0.188747   -1.100467   -0.858867
      2         15           0        0.929951   -0.242484    1.033466
      3          6           0       -0.646032    0.541252    1.729138
      4          6           0       -0.752657   -0.616993    2.811536
      5          6           0        0.776149   -1.090381    2.747601
      6         15           0       -1.610560    0.470960    0.126383
      7          6           0        2.432748    0.899168    0.875088
      8          6           0        1.978942    2.262324    0.317377
      9          6           0        3.140557    3.251205    0.134638
     10          6           0        4.218232    2.622733   -0.750930
     11          6           0        4.694798    1.286739   -0.183151
     12          6           0        3.553715    0.268735    0.006673
     13          6           0        2.644885    4.588791   -0.416615
     14          6           0        4.064136   -1.104424    0.522164
     15          6           0        4.780658   -1.894444   -0.581170
     16          6           0        4.962313   -1.014928    1.764812
     17          6           0       -1.195308   -0.062198    4.170955
     18          6           0       -1.712049   -1.757460    2.444086
     19          6           0        1.047628   -2.590135    2.799244
     20          6           0       -1.546472    2.187964   -0.556259
     21          6           0       -1.394304    2.357608   -1.933777
     22          6           0       -1.425367    3.629551   -2.496367
     23          6           0       -1.603785    4.745112   -1.686096
     24          6           0       -1.757080    4.584845   -0.311910
     25          6           0       -1.732076    3.314162    0.250402
     26          6           0       -3.418159    0.224600    0.407176
     27          6           0       -4.139345   -0.565769   -0.489154
     28          6           0       -5.514245   -0.721586   -0.336332
     29          6           0       -6.175466   -0.094683    0.713373
     30          6           0       -5.460935    0.696159    1.609786
     31          6           0       -4.089730    0.859118    1.456491
     32          6           0       -0.962356   -1.558221   -2.963553
     33          6           0        0.023935   -1.036900   -3.926782
     34          6           0        1.481847   -1.424678   -3.403666
     35          6           0        1.330851   -2.226505   -2.177904
     36          6           0        0.835943   -3.081789   -1.450405
     37          6           0       -0.103019   -4.160437   -1.097767
     38          6           0       -1.561850   -3.734251   -1.590196
     39          6           0       -1.460019   -2.412273   -2.232712
     40          1           0       -0.595969    1.523912    2.194099
     41          1           0        2.806769    1.048118    1.890779
     42          1           0        1.230453    2.706572    0.977051
     43          1           0        1.490072    2.116599   -0.651963
     44          1           0        3.584686    3.433985    1.121890
     45          1           0        5.065722    3.306084   -0.851181
     46          1           0        3.814875    2.478539   -1.761029
     47          1           0        5.182285    1.470296    0.778931
     48          1           0        5.456505    0.856345   -0.836842
     49          1           0        3.111695    0.088723   -0.980907
     50          1           0        3.469671    5.296736   -0.521368
     51          1           0        2.187012    4.462276   -1.401557
     52          1           0        1.899074    5.041188    0.240931
     53          1           0        3.177753   -1.692327    0.793227
     54          1           0        5.067395   -2.884475   -0.220439
     55          1           0        5.694126   -1.392462   -0.906762
     56          1           0        4.139494   -2.034243   -1.453336
     57          1           0        4.547186   -0.374747    2.545085
     58          1           0        5.112649   -2.006423    2.197020
     59          1           0        5.948767   -0.621964    1.512735
     60          1           0       -1.140257   -0.831552    4.944530
     61          1           0       -2.236250    0.262590    4.112949
     62          1           0       -0.599085    0.788767    4.497980
     63          1           0       -1.628114   -2.561819    3.176205
     64          1           0       -1.508012   -2.174400    1.456516
     65          1           0       -2.744119   -1.412308    2.455186
     66          1           0        0.754425   -2.999089    3.770387
     67          1           0        2.114565   -2.786514    2.677891
     68          1           0        0.516594   -3.142957    2.027169
     69          1           0       -1.258799    1.491212   -2.567676
     70          1           0       -1.311746    3.748367   -3.566743
     71          1           0       -1.627513    5.735721   -2.122310
     72          1           0       -1.901237    5.450327    0.322746
     73          1           0       -1.863744    3.213647    1.320475
     74          1           0       -3.631314   -1.054520   -1.310597
     75          1           0       -6.067064   -1.332782   -1.038791
     76          1           0       -7.244360   -0.218150    0.833248
     77          1           0       -5.973073    1.188858    2.426845
     78          1           0       -3.550530    1.481792    2.159561
     79          1           0       -0.039528    0.044111   -4.045682
     80          1           0       -0.151818   -1.482341   -4.909132
     81          1           0        2.056406   -0.515942   -3.227717
     82          1           0        2.009702   -2.002227   -4.166673
     83          1           0       -0.124077   -4.355719   -0.026370
     84          1           0        0.200048   -5.087880   -1.590223
     85          1           0       -2.244354   -3.724647   -0.740894
     86          1           0       -1.942455   -4.467228   -2.306169
     87          6           0        1.651538   -0.389797    3.791563
     88          1           0        1.382912   -0.741247    4.790364
     89          1           0        2.702310   -0.632206    3.638402
     90          1           0        1.551299    0.695968    3.789314
 ---------------------------------------------------------------------

 SCF Done:  E(RB3LYP) =  -2233.58689004     A.U. after   17 cycles

      1  Rh   Isotropic =  -409.4476   Anisotropy =   435.3344

      2  P    Isotropic =   263.2309   Anisotropy =   183.4424

      3  C    Isotropic =   116.4631   Anisotropy =    34.9625

      4  C    Isotropic =   133.4920   Anisotropy =    28.5236

      5  C    Isotropic =   122.1483   Anisotropy =    44.6964

      6  P    Isotropic =   304.3884   Anisotropy =    85.6332

      7  C    Isotropic =   135.7745   Anisotropy =    30.7383

      8  C    Isotropic =   143.2937   Anisotropy =    26.4060

      9  C    Isotropic =   146.7486   Anisotropy =     7.7102

     10  C    Isotropic =   147.4126   Anisotropy =    20.1559

     11  C    Isotropic =   156.1411   Anisotropy =     6.6212

     12  C    Isotropic =   132.6828   Anisotropy =    15.6111

     13  C    Isotropic =   161.9779   Anisotropy =    39.5982

     14  C    Isotropic =   146.8713   Anisotropy =    15.5493

     15  C    Isotropic =   161.3978   Anisotropy =    37.6994

     16  C    Isotropic =   166.7082   Anisotropy =    24.5524

     17  C    Isotropic =   155.5963   Anisotropy =    39.7302

     18  C    Isotropic =   156.0603   Anisotropy =    20.6439

     19  C    Isotropic =   159.8506   Anisotropy =    29.2431

     20  C    Isotropic =    40.2157   Anisotropy =   181.3183

     21  C    Isotropic =    43.9477   Anisotropy =   178.8688

     22  C    Isotropic =    49.7283   Anisotropy =   187.5900

     23  C    Isotropic =    46.2485   Anisotropy =   197.4770

     24  C    Isotropic =    48.5030   Anisotropy =   190.8400

     25  C    Isotropic =    49.9528   Anisotropy =   186.5588

     26  C    Isotropic =    39.3911   Anisotropy =   177.1660

     27  C    Isotropic =    47.2044   Anisotropy =   183.2746

     28  C    Isotropic =    49.1863   Anisotropy =   188.4397

     29  C    Isotropic =    46.4105   Anisotropy =   195.7395

     30  C    Isotropic =    48.8232   Anisotropy =   189.2079

     31  C    Isotropic =    49.8130   Anisotropy =   181.3330

     32  C    Isotropic =    87.0359   Anisotropy =   243.8383

     33  C    Isotropic =   154.8663   Anisotropy =    19.5220

     34  C    Isotropic =   155.2550   Anisotropy =    20.6593

     35  C    Isotropic =    88.1865   Anisotropy =   243.1802

     36  C    Isotropic =    87.9385   Anisotropy =   244.8475

     37  C    Isotropic =   154.5635   Anisotropy =    18.8527

     38  C    Isotropic =   154.2853   Anisotropy =    18.7033

     39  C    Isotropic =    86.1666   Anisotropy =   245.6707

     40  H    Isotropic =    27.5370   Anisotropy =     4.1485

     41  H    Isotropic =    29.5515   Anisotropy =     4.3736

     42  H    Isotropic =    30.9976   Anisotropy =     6.0688

     43  H    Isotropic =    31.6336   Anisotropy =     8.5905

     44  H    Isotropic =    30.8037   Anisotropy =     6.8527

     45  H    Isotropic =    30.2973   Anisotropy =    10.4851

     46  H    Isotropic =    31.3219   Anisotropy =     5.2849

     47  H    Isotropic =    30.9152   Anisotropy =     7.2167

     48  H    Isotropic =    30.2746   Anisotropy =     8.7060

     49  H    Isotropic =    30.8644   Anisotropy =     5.1676

     50  H    Isotropic =    31.0248   Anisotropy =    11.7491

     51  H    Isotropic =    32.0964   Anisotropy =     5.9647

     52  H    Isotropic =    31.5393   Anisotropy =     7.6180

     53  H    Isotropic =    30.9765   Anisotropy =     8.5903

     54  H    Isotropic =    30.9909   Anisotropy =    10.3041

     55  H    Isotropic =    30.9375   Anisotropy =     8.7384

     56  H    Isotropic =    31.2071   Anisotropy =     8.3077

     57  H    Isotropic =    31.1626   Anisotropy =     6.1151

     58  H    Isotropic =    31.0716   Anisotropy =     9.9031

     59  H    Isotropic =    31.2148   Anisotropy =     9.6871

     60  H    Isotropic =    30.8082   Anisotropy =    11.1588

     61  H    Isotropic =    30.7548   Anisotropy =     8.8806

     62  H    Isotropic =    30.4549   Anisotropy =     7.5559

     63  H    Isotropic =    30.7567   Anisotropy =     7.5805

     64  H    Isotropic =    28.4270   Anisotropy =     8.0741

     65  H    Isotropic =    31.0739   Anisotropy =     9.1268

     66  H    Isotropic =    30.7270   Anisotropy =    10.4238

     67  H    Isotropic =    30.8753   Anisotropy =     7.2902

     68  H    Isotropic =    30.2129   Anisotropy =     6.2283

     69  H    Isotropic =    23.9020   Anisotropy =     8.6647

     70  H    Isotropic =    24.2708   Anisotropy =     6.3032

     71  H    Isotropic =    24.1757   Anisotropy =     3.1616

     72  H    Isotropic =    24.1860   Anisotropy =     5.7012

     73  H    Isotropic =    24.0647   Anisotropy =    10.3682

     74  H    Isotropic =    24.2017   Anisotropy =    10.4798

     75  H    Isotropic =    24.3573   Anisotropy =     7.0505

     76  H    Isotropic =    24.2031   Anisotropy =     3.5917

     77  H    Isotropic =    24.2571   Anisotropy =     6.7494

     78  H    Isotropic =    24.3040   Anisotropy =    11.0376

     79  H    Isotropic =    28.5799   Anisotropy =     8.2145

     80  H    Isotropic =    28.2668   Anisotropy =    12.4613

     81  H    Isotropic =    28.7258   Anisotropy =     7.0887

     82  H    Isotropic =    28.4389   Anisotropy =    11.7261

     83  H    Isotropic =    28.6267   Anisotropy =     7.2013

     84  H    Isotropic =    28.3588   Anisotropy =    12.1567

     85  H    Isotropic =    28.5953   Anisotropy =     6.8244

     86  H    Isotropic =    28.2893   Anisotropy =    12.5353

     87  C    Isotropic =   158.9274   Anisotropy =    21.1118

     88  H    Isotropic =    30.4360   Anisotropy =     9.8776

     89  H    Isotropic =    30.6501   Anisotropy =     8.4684

     90  H    Isotropic =    30.4010   Anisotropy =     5.5738

 The electronic state is 1-A.
 Alpha  occ. eigenvalues --  -77.23242 -77.21991 -10.31613 -10.31549 -10.31544
 Alpha  occ. eigenvalues --  -10.31521 -10.30666 -10.30397 -10.30231 -10.30107
 Alpha  occ. eigenvalues --  -10.30027 -10.29895 -10.29855 -10.29114 -10.28920
 Alpha  occ. eigenvalues --  -10.28904 -10.28052 -10.27925 -10.27868 -10.27627
 Alpha  occ. eigenvalues --  -10.27337 -10.27301 -10.27249 -10.27145 -10.27068
 Alpha  occ. eigenvalues --  -10.27013 -10.26916 -10.26440 -10.26363 -10.26169
 Alpha  occ. eigenvalues --  -10.26041 -10.25766 -10.25657 -10.25517 -10.24791
 Alpha  occ. eigenvalues --  -10.24416 -10.24152 -10.23865 -10.23491  -6.69169
 Alpha  occ. eigenvalues --   -6.68009  -4.85450  -4.85383  -4.85093  -4.84302
 Alpha  occ. eigenvalues --   -4.84179  -4.83924  -3.30950  -2.08171  -2.07025
 Alpha  occ. eigenvalues --   -2.04334  -0.96575  -0.96320  -0.95744  -0.95606
 Alpha  occ. eigenvalues --   -0.93664  -0.91545  -0.88993  -0.88818  -0.87822
 Alpha  occ. eigenvalues --   -0.86291  -0.85093  -0.84998  -0.84748  -0.84547
 Alpha  occ. eigenvalues --   -0.83174  -0.83086  -0.82251  -0.80246  -0.79872
 Alpha  occ. eigenvalues --   -0.77446  -0.76836  -0.76098  -0.75683  -0.74742
 Alpha  occ. eigenvalues --   -0.71972  -0.71164  -0.70426  -0.70183  -0.69905
 Alpha  occ. eigenvalues --   -0.69673  -0.66798  -0.65951  -0.64742  -0.64065
 Alpha  occ. eigenvalues --   -0.63548  -0.62070  -0.60853  -0.60131  -0.59870
 Alpha  occ. eigenvalues --   -0.59329  -0.57974  -0.57360  -0.57009  -0.56474
 Alpha  occ. eigenvalues --   -0.55902  -0.55826  -0.55461  -0.55289  -0.55182
 Alpha  occ. eigenvalues --   -0.54989  -0.54570  -0.54204  -0.53806  -0.53512
 Alpha  occ. eigenvalues --   -0.52906  -0.52516  -0.52325  -0.52065  -0.51957
 Alpha  occ. eigenvalues --   -0.51848  -0.51805  -0.50800  -0.50637  -0.50391
 Alpha  occ. eigenvalues --   -0.49889  -0.49677  -0.49321  -0.49002  -0.48951
 Alpha  occ. eigenvalues --   -0.48442  -0.48061  -0.47538  -0.46960  -0.46832
 Alpha  occ. eigenvalues --   -0.46533  -0.46254  -0.45942  -0.45653  -0.45238
 Alpha  occ. eigenvalues --   -0.45090  -0.44665  -0.44523  -0.44257  -0.43758
 Alpha  occ. eigenvalues --   -0.43634  -0.43053  -0.42899  -0.42775  -0.41875
 Alpha  occ. eigenvalues --   -0.41614  -0.41174  -0.41057  -0.40798  -0.40280
 Alpha  occ. eigenvalues --   -0.39866  -0.38586  -0.38054  -0.37486  -0.37232
 Alpha  occ. eigenvalues --   -0.36548  -0.35826  -0.35782  -0.35379  -0.34803
 Alpha  occ. eigenvalues --   -0.34090  -0.32962  -0.32897  -0.30232
 Alpha virt. eigenvalues --   -0.15671  -0.14695  -0.13605  -0.12612  -0.11780
 Alpha virt. eigenvalues --   -0.11353  -0.10783  -0.10321  -0.08916  -0.08175
 Alpha virt. eigenvalues --   -0.07058  -0.06716  -0.06051  -0.05632  -0.05091

 Mulliken charges:
               1
     1  Rh  -0.573463
     2  P    0.427464
     3  C   -0.452788
     4  C    0.053923
     5  C   -0.104394
     6  P    0.157284
     7  C   -0.069838
     8  C   -0.345553
     9  C   -0.088783
    10  C   -0.236547
    11  C   -0.283981
    12  C   -0.152143
    13  C   -0.353158
    14  C   -0.035006
    15  C   -0.399073
    16  C   -0.416092
    17  C   -0.368240
    18  C   -0.476046
    19  C   -0.350414
    20  C   -0.090840
    21  C   -0.045627
    22  C   -0.114259
    23  C   -0.086213
    24  C   -0.104811
    25  C   -0.056666
    26  C   -0.113094
    27  C   -0.051128
    28  C   -0.118470
    29  C   -0.084043
    30  C   -0.101476
    31  C   -0.060175
    32  C    0.089185
    33  C   -0.265171
    34  C   -0.247913
    35  C    0.053335
    36  C    0.071115
    37  C   -0.278591
    38  C   -0.225220
    39  C   -0.006188
    40  H    0.227153
    41  H    0.189027
    42  H    0.129550
    43  H    0.147513
    44  H    0.127637
    45  H    0.139821
    46  H    0.105387
    47  H    0.138937
    48  H    0.140323
    49  H    0.128567
    50  H    0.139806
    51  H    0.113105
    52  H    0.120318
    53  H    0.121490
    54  H    0.136654
    55  H    0.132824
    56  H    0.126791
    57  H    0.120111
    58  H    0.141718
    59  H    0.150947
    60  H    0.148479
    61  H    0.140360
    62  H    0.135886
    63  H    0.157592
    64  H    0.139148
    65  H    0.182213
    66  H    0.152936
    67  H    0.154985
    68  H    0.126428
    69  H    0.118956
    70  H    0.124753
    71  H    0.138654
    72  H    0.129464
    73  H    0.130710
    74  H    0.165591
    75  H    0.127001
    76  H    0.138197
    77  H    0.129822
    78  H    0.137150
    79  H    0.170090
    80  H    0.184977
    81  H    0.173157
    82  H    0.187852
    83  H    0.171937
    84  H    0.182312
    85  H    0.170009
    86  H    0.185789
    87  C   -0.450605
    88  H    0.162578
    89  H    0.162046
    90  H    0.146949
 Sum of Mulliken charges =   1.00000

 Dipole moment (field-independent basis, Debye):
    X=             -1.2158    Y=             -1.6663    Z=             -0.6916  Tot=              2.1755
 Quadrupole moment (field-independent basis, Debye-Ang):
   XX=           -229.5901   YY=           -226.2980   ZZ=           -228.8847
   XY=              2.1015   XZ=             -4.2439   YZ=              7.0344

 Summary of Natural Population Analysis:

                                       Natural Population
                Natural  -----------------------------------------------
    Atom  No    Charge         Core      Valence    Rydberg      Total
 -----------------------------------------------------------------------
     Rh    1   -0.39913     35.98626     9.38453    0.02834    45.39913
      P    2    1.08589      9.99696     3.87130    0.04584    13.91411
      C    3   -0.77713      1.99931     4.75573    0.02209     6.77713
      C    4   -0.01481      1.99937     3.99294    0.02250     6.01481
      C    5   -0.21291      1.99934     4.19153    0.02204     6.21291
      P    6    1.12394      9.99671     3.82714    0.05221    13.87606
      C    7   -0.47005      1.99930     4.45167    0.01908     6.47005
      C    8   -0.39007      1.99936     4.37793    0.01278     6.39007
      C    9   -0.19899      1.99941     4.18777    0.01181     6.19899
      C   10   -0.38066      1.99938     4.37104    0.01025     6.38066
      C   11   -0.38858      1.99937     4.37808    0.01114     6.38858
      C   12   -0.19896      1.99933     4.18297    0.01666     6.19896
      C   13   -0.58381      1.99943     4.57810    0.00628     6.58381
      C   14   -0.19645      1.99942     4.18425    0.01278     6.19645
      C   15   -0.58612      1.99942     4.57880    0.00790     6.58612
      C   16   -0.60179      1.99942     4.59396    0.00841     6.60179
      C   17   -0.60449      1.99935     4.59530    0.00984     6.60449
      C   18   -0.60696      1.99935     4.59818    0.00943     6.60696
      C   19   -0.61385      1.99934     4.60545    0.00906     6.61385
      C   20   -0.32379      1.99897     4.29980    0.02503     6.32379
      C   21   -0.18419      1.99910     4.16887    0.01622     6.18419
      C   22   -0.19501      1.99919     4.18106    0.01475     6.19501
      C   23   -0.17891      1.99920     4.16493    0.01478     6.17891
      C   24   -0.19054      1.99919     4.17637    0.01498     6.19054
      C   25   -0.19636      1.99909     4.18099    0.01628     6.19636
      C   26   -0.33457      1.99898     4.31122    0.02438     6.33457
      C   27   -0.18782      1.99909     4.17316    0.01556     6.18782
      C   28   -0.19165      1.99920     4.17801    0.01444     6.19165
      C   29   -0.18008      1.99920     4.16630    0.01458     6.18008
      C   30   -0.19074      1.99919     4.17666    0.01489     6.19074
      C   31   -0.19918      1.99908     4.18349    0.01662     6.19918
      C   32    0.02022      1.99826     3.96292    0.01859     5.97978
      C   33   -0.42868      1.99923     4.41563    0.01382     6.42868
      C   34   -0.43399      1.99923     4.42000    0.01477     6.43399
      C   35    0.02517      1.99824     3.95783    0.01876     5.97483
      C   36    0.02907      1.99826     3.95437    0.01831     5.97093
      C   37   -0.43002      1.99923     4.41695    0.01384     6.43002
      C   38   -0.43370      1.99923     4.42020    0.01427     6.43370
      C   39    0.02556      1.99826     3.95750    0.01868     5.97444
      H   40    0.24342      0.00000     0.75369    0.00289     0.75658
      H   41    0.22636      0.00000     0.77020    0.00343     0.77364
      H   42    0.20491      0.00000     0.79262    0.00247     0.79509
      H   43    0.20461      0.00000     0.79264    0.00275     0.79539
      H   44    0.18858      0.00000     0.80957    0.00185     0.81142
      H   45    0.21347      0.00000     0.78495    0.00158     0.78653
      H   46    0.18591      0.00000     0.81215    0.00194     0.81409
      H   47    0.19634      0.00000     0.80166    0.00200     0.80366
      H   48    0.21368      0.00000     0.78461    0.00171     0.78632
      H   49    0.19964      0.00000     0.79786    0.00250     0.80036
      H   50    0.21244      0.00000     0.78626    0.00131     0.78756
      H   51    0.19862      0.00000     0.79980    0.00159     0.80138
      H   52    0.20458      0.00000     0.79408    0.00133     0.79542
      H   53    0.18916      0.00000     0.80808    0.00276     0.81084
      H   54    0.21144      0.00000     0.78729    0.00127     0.78856
      H   55    0.20226      0.00000     0.79607    0.00168     0.79774
      H   56    0.20206      0.00000     0.79664    0.00131     0.79794
      H   57    0.19450      0.00000     0.80398    0.00152     0.80550
      H   58    0.21253      0.00000     0.78616    0.00131     0.78747
      H   59    0.21013      0.00000     0.78848    0.00139     0.78987
      H   60    0.21713      0.00000     0.78129    0.00158     0.78287
      H   61    0.21537      0.00000     0.78305    0.00158     0.78463
      H   62    0.20760      0.00000     0.79100    0.00140     0.79240
      H   63    0.21839      0.00000     0.78004    0.00157     0.78161
      H   64    0.21185      0.00000     0.78630    0.00184     0.78815
      H   65    0.22390      0.00000     0.77423    0.00187     0.77610
      H   66    0.21745      0.00000     0.78062    0.00193     0.78255
      H   67    0.21802      0.00000     0.78027    0.00171     0.78198
      H   68    0.20959      0.00000     0.78881    0.00160     0.79041
      H   69    0.21449      0.00000     0.78351    0.00199     0.78551
      H   70    0.21937      0.00000     0.77940    0.00123     0.78063
      H   71    0.22236      0.00000     0.77647    0.00117     0.77764
      H   72    0.22125      0.00000     0.77751    0.00124     0.77875
      H   73    0.20600      0.00000     0.79200    0.00201     0.79400
      H   74    0.22322      0.00000     0.77477    0.00201     0.77678
      H   75    0.22025      0.00000     0.77851    0.00124     0.77975
      H   76    0.22228      0.00000     0.77654    0.00118     0.77772
      H   77    0.22144      0.00000     0.77729    0.00128     0.77856
      H   78    0.20741      0.00000     0.78992    0.00267     0.79259
      H   79    0.23391      0.00000     0.76379    0.00229     0.76609
      H   80    0.24700      0.00000     0.75114    0.00186     0.75300
      H   81    0.23783      0.00000     0.75988    0.00230     0.76217
      H   82    0.24750      0.00000     0.75064    0.00186     0.75250
      H   83    0.23526      0.00000     0.76203    0.00271     0.76474
      H   84    0.24744      0.00000     0.75072    0.00184     0.75256
      H   85    0.23920      0.00000     0.75842    0.00239     0.76080
      H   86    0.24677      0.00000     0.75136    0.00187     0.75323
      C   87   -0.62164      1.99934     4.61258    0.00971     6.62164
      H   88    0.22505      0.00000     0.77310    0.00185     0.77495
      H   89    0.21816      0.00000     0.78001    0.00183     0.78184
      H   90    0.20569      0.00000     0.79269    0.00163     0.79431
 =======================================================================
   * Total *    1.00000    129.94861   215.27760    0.77380   346.00000

 Normal termination of Gaussian 16 at Tue Nov 19 12:01:15 2024.
