 Gaussian 16, Revision B.01,
 Gaussian 16:  ES64L-G16RevB.01 20-Dec-2017

 ------------------------------------------
 # nmr=giao b3lyp/genecp pop=nbo scfcyc=200
 ------------------------------------------

 ----------
 MB-137_SPE
 ----------
 Symbolic Z-matrix:
 Charge =  1 Multiplicity = 1

                         Standard orientation:
 ---------------------------------------------------------------------
 Center     Atomic      Atomic             Coordinates (Angstroms)
 Number     Number       Type             X           Y           Z
 ---------------------------------------------------------------------
      1         15           0       -1.423369   -0.562309   -0.414650
      2          6           0       -1.737139   -0.143999    1.347530
      3          6           0       -2.026300   -1.181579    2.240550
      4          6           0       -2.305820   -0.904229    3.573410
      5          6           0       -2.294649    0.410301    4.028630
      6          6           0       -2.004959    1.447871    3.148190
      7          6           0       -1.727679    1.175281    1.813430
      8          1           0       -1.504429    1.998091    1.146940
      9          1           0       -1.994149    2.472241    3.498280
     10          1           0       -2.508789    0.625931    5.067800
     11          1           0       -2.530460   -1.714139    4.255920
     12          1           0       -2.029690   -2.207279    1.894910
     13          6           0       -0.161149    0.669001   -1.029420
     14         15           0        1.329831   -0.402330   -0.707710
     15          1           0       -0.305799    0.774841   -2.104780
     16          1           0       -0.149489    1.655101   -0.571020
     17         45           0        0.045380   -2.406399   -0.834970
     18          6           0       -1.268290   -4.240919   -0.644670
     19          6           0       -1.346490   -3.759919   -1.938580
     20          6           0        1.542100   -3.755860   -1.891760
     21          6           0        1.622480   -3.961770   -0.528580
     22          6           0       -0.452900   -5.442049   -0.203200
     23          1           0       -2.048590   -3.927289    0.040530
     24          1           0       -2.194300   -3.130399   -2.182660
     25          6           0       -0.612900   -4.282729   -3.148800
     26          6           0        0.851150   -4.678480   -2.876750
     27          1           0        2.239470   -3.052020   -2.329760
     28          6           0        0.978860   -5.081540    0.252230
     29          1           0        2.402640   -3.433580    0.009980
     30          1           0       -0.967951   -5.926309    0.627900
     31          1           0       -0.422021   -6.179019   -1.005760
     32          1           0       -1.160990   -5.134049   -3.571810
     33          1           0       -0.636030   -3.503049   -3.912970
     34          1           0        0.909720   -5.706850   -2.520770
     35          1           0        1.399860   -4.654040   -3.819550
     36          1           0        0.952660   -4.779990    1.301690
     37          1           0        1.616259   -5.973740    0.214670
     38          6           0        2.649171    0.040830   -1.901100
     39          6           0        3.785660   -0.773860   -1.981900
     40          6           0        2.559671    1.173520   -2.715520
     41          6           0        4.812531   -0.457070   -2.862480
     42          1           0        3.881840   -1.647110   -1.349040
     43          6           0        3.587211    1.480940   -3.600730
     44          1           0        1.699761    1.827730   -2.660050
     45          6           0        4.712281    0.667230   -3.676380
     46          1           0        5.690330   -1.088811   -2.912540
     47          1           0        3.509641    2.361870   -4.225180
     48          1           0        5.511391    0.910469   -4.365160
     49          6           0       -3.052469   -0.082619   -1.344190
     50          1           0       -2.928629   -0.517949   -2.338920
     51          8           0       -3.063579    1.326651   -1.498190
     52          6           0       -5.104539    0.237542    0.025230
     53          5           0       -3.890409    2.141221   -0.752210
     54          8           0       -4.846889    1.585081    0.072180
     55          6           0       -3.742919    3.680701   -0.845130
     56          6           0       -2.817459    4.268851   -1.721760
     57          6           0       -4.539588    4.528301   -0.059480
     58          6           0       -2.693208    5.649481   -1.812170
     59          1           0       -2.200919    3.634861   -2.347710
     60          6           0       -4.414678    5.909321   -0.143300
     61          1           0       -5.265079    4.097822    0.619630
     62          6           0       -3.491338    6.471491   -1.020650
     63          1           0       -1.981298    6.087251   -2.501290
     64          1           0       -5.038608    6.548712    0.468950
     65          1           0       -3.397808    7.548371   -1.091370
     66          6           0       -8.549040   -1.213848    1.992020
     67          6           0       -7.741650   -2.079228    1.297860
     68          6           0       -6.583420   -1.612158    0.631200
     69          6           0       -6.271369   -0.220928    0.694510
     70          6           0       -7.123129    0.650462    1.413810
     71          6           0       -8.236969    0.160842    2.049260
     72          1           0       -5.994280   -3.526688   -0.183350
     73          1           0       -9.433200   -1.583208    2.496220
     74          1           0       -7.983520   -3.134258    1.247660
     75          6           0       -5.739460   -2.476398   -0.111850
     76          1           0       -6.883589    1.703422    1.453610
     77          1           0       -8.885039    0.833122    2.597290
     78          6           0       -4.284979   -0.620059   -0.674780
     79          6           0       -4.629130   -1.991169   -0.746900
     80          1           0       -4.012310   -2.663669   -1.329540
     81          6           0        1.953051    0.297190    0.976090
     82          1           0        1.113711    0.133430    1.654330
     83          8           0        2.116281    1.698460    0.828910
     84          6           0        3.182731   -0.392760    1.486490
     85          5           0        3.363891    2.268910    0.677260
     86          6           0        4.402941    0.234700    1.375040
     87          6           0        3.111200   -1.666170    2.100530
     88          8           0        4.499961    1.499780    0.853350
     89          6           0        3.493191    3.774770    0.337890
     90          6           0        5.601591   -0.379571    1.828860
     91          6           0        4.241440   -2.294890    2.547820
     92          1           0        2.141070   -2.133070    2.226280
     93          6           0        2.357602    4.588440    0.202270
     94          6           0        4.753771    4.367130    0.165620
     95          6           0        5.513030   -1.678371    2.415530
     96          6           0        6.864251    0.248999    1.717170
     97          1           0        4.176350   -3.265130    3.025110
     98          6           0        2.475022    5.940590   -0.093140
     99          1           0        1.373531    4.157130    0.341160
    100          6           0        4.875682    5.718060   -0.134550
    101          1           0        5.644981    3.760849    0.269990
    102          6           0        6.702090   -2.300461    2.866600
    103          6           0        7.995821   -0.386751    2.164230
    104          1           0        6.921871    1.233859    1.275990
    105          6           0        3.735782    6.506700   -0.264010
    106          1           0        1.587992    6.555110   -0.186980
    107          1           0        5.856552    6.158809   -0.263600
    108          6           0        7.915090   -1.670851    2.742930
    109          1           0        6.638550   -3.284031    3.316890
    110          1           0        8.959021    0.099929    2.076490
    111          1           0        3.829812    7.561220   -0.493340
    112          1           0        8.816660   -2.157231    3.093640
 ---------------------------------------------------------------------

 SCF Done:  E(RB3LYP) =  -3269.61391968     A.U. after   18 cycles

      1  P    Isotropic =   297.2337   Anisotropy =    57.1706

      2  C    Isotropic =    50.6686   Anisotropy =   176.9892

      3  C    Isotropic =    42.0735   Anisotropy =   186.7684

      4  C    Isotropic =    49.8252   Anisotropy =   190.8803

      5  C    Isotropic =    44.8222   Anisotropy =   200.4891

      6  C    Isotropic =    48.3493   Anisotropy =   193.2670

      7  C    Isotropic =    47.5784   Anisotropy =   195.5168

      8  H    Isotropic =    23.8809   Anisotropy =     6.7488

      9  H    Isotropic =    24.2476   Anisotropy =     5.9461

     10  H    Isotropic =    24.2919   Anisotropy =     2.9742

     11  H    Isotropic =    24.6097   Anisotropy =     5.1704

     12  H    Isotropic =    24.4631   Anisotropy =     7.0577

     13  C    Isotropic =   148.2342   Anisotropy =    37.7740

     14  P    Isotropic =   300.5112   Anisotropy =    59.8450

     15  H    Isotropic =    27.8568   Anisotropy =     4.9372

     16  H    Isotropic =    27.4438   Anisotropy =    10.7507

     17  Rh   Isotropic =  -328.8734   Anisotropy =   356.7420

     18  C    Isotropic =    84.1775   Anisotropy =   116.3366

     19  C    Isotropic =    76.3864   Anisotropy =   117.3074

     20  C    Isotropic =    75.8707   Anisotropy =   127.7051

     21  C    Isotropic =    80.8192   Anisotropy =   113.7186

     22  C    Isotropic =   154.1914   Anisotropy =    24.9154

     23  H    Isotropic =    26.7368   Anisotropy =     7.0843

     24  H    Isotropic =    25.7018   Anisotropy =     4.8425

     25  C    Isotropic =   146.3065   Anisotropy =    32.0872

     26  C    Isotropic =   154.2876   Anisotropy =    25.2405

     27  H    Isotropic =    27.2045   Anisotropy =     6.3638

     28  C    Isotropic =   147.6590   Anisotropy =    29.5879

     29  H    Isotropic =    26.3141   Anisotropy =     7.0961

     30  H    Isotropic =    29.6707   Anisotropy =    11.4380

     31  H    Isotropic =    29.6812   Anisotropy =     9.9566

     32  H    Isotropic =    29.0172   Anisotropy =    12.8041

     33  H    Isotropic =    29.0014   Anisotropy =     6.8473

     34  H    Isotropic =    29.8881   Anisotropy =     9.6549

     35  H    Isotropic =    30.0500   Anisotropy =    11.1214

     36  H    Isotropic =    28.9561   Anisotropy =     6.4980

     37  H    Isotropic =    29.0517   Anisotropy =    12.8765

     38  C    Isotropic =    51.0770   Anisotropy =   168.1430

     39  C    Isotropic =    46.7545   Anisotropy =   187.1137

     40  C    Isotropic =    47.8415   Anisotropy =   188.6493

     41  C    Isotropic =    49.7434   Anisotropy =   191.4313

     42  H    Isotropic =    25.8677   Anisotropy =     6.8298

     43  C    Isotropic =    48.3597   Anisotropy =   192.9595

     44  H    Isotropic =    24.3704   Anisotropy =     9.9516

     45  C    Isotropic =    45.9800   Anisotropy =   199.3822

     46  H    Isotropic =    24.7392   Anisotropy =     6.9481

     47  H    Isotropic =    24.3564   Anisotropy =     6.0490

     48  H    Isotropic =    24.2191   Anisotropy =     3.1218

     49  C    Isotropic =    96.0073   Anisotropy =    36.5517

     50  H    Isotropic =    25.6135   Anisotropy =     4.9410

     51  O    Isotropic =   210.2447   Anisotropy =   164.6428

     52  C    Isotropic =    30.5302   Anisotropy =   130.7796

     53  B    Isotropic =    75.2558   Anisotropy =    19.6205

     54  O    Isotropic =   165.2018   Anisotropy =   281.1187

     55  C    Isotropic =    50.9620   Anisotropy =   203.8492

     56  C    Isotropic =    44.6376   Anisotropy =   195.8815

     57  C    Isotropic =    42.7763   Anisotropy =   198.8470

     58  C    Isotropic =    50.8520   Anisotropy =   185.9162

     59  H    Isotropic =    23.3714   Anisotropy =    10.3008

     60  C    Isotropic =    49.9955   Anisotropy =   187.4786

     61  H    Isotropic =    23.2880   Anisotropy =    10.7997

     62  C    Isotropic =    44.3801   Anisotropy =   195.6367

     63  H    Isotropic =    23.9549   Anisotropy =     6.6248

     64  H    Isotropic =    23.9409   Anisotropy =     5.7431

     65  H    Isotropic =    23.8473   Anisotropy =     4.6293

     66  C    Isotropic =    49.7313   Anisotropy =   187.9154

     67  C    Isotropic =    51.5422   Anisotropy =   163.8008

     68  C    Isotropic =    43.1938   Anisotropy =   212.7264

     69  C    Isotropic =    53.2934   Anisotropy =   189.8122

     70  C    Isotropic =    57.2021   Anisotropy =   185.2053

     71  C    Isotropic =    50.9275   Anisotropy =   186.9342

     72  H    Isotropic =    24.2353   Anisotropy =     8.7092

     73  H    Isotropic =    24.0268   Anisotropy =     4.9566

     74  H    Isotropic =    23.9468   Anisotropy =     8.2841

     75  C    Isotropic =    55.1513   Anisotropy =   157.5379

     76  H    Isotropic =    23.3978   Anisotropy =    11.8081

     77  H    Isotropic =    24.0557   Anisotropy =     6.5551

     78  C    Isotropic =    69.1623   Anisotropy =   140.5838

     79  C    Isotropic =    62.0206   Anisotropy =   158.5601

     80  H    Isotropic =    25.0469   Anisotropy =     8.2606

     81  C    Isotropic =    98.6241   Anisotropy =    33.4250

     82  H    Isotropic =    26.8542   Anisotropy =     8.2655

     83  O    Isotropic =   212.4376   Anisotropy =   166.7459

     84  C    Isotropic =    68.2554   Anisotropy =   138.8834

     85  B    Isotropic =    76.0562   Anisotropy =    18.7384

     86  C    Isotropic =    30.1236   Anisotropy =   130.0943

     87  C    Isotropic =    59.6257   Anisotropy =   158.6911

     88  O    Isotropic =   166.0229   Anisotropy =   275.9765

     89  C    Isotropic =    51.5590   Anisotropy =   204.6469

     90  C    Isotropic =    53.4338   Anisotropy =   188.2936

     91  C    Isotropic =    56.0050   Anisotropy =   154.7530

     92  H    Isotropic =    24.8586   Anisotropy =     8.7195

     93  C    Isotropic =    45.2932   Anisotropy =   194.2845

     94  C    Isotropic =    43.4742   Anisotropy =   198.1934

     95  C    Isotropic =    43.0667   Anisotropy =   211.4849

     96  C    Isotropic =    57.2258   Anisotropy =   185.0835

     97  H    Isotropic =    24.1772   Anisotropy =     9.5089

     98  C    Isotropic =    51.4899   Anisotropy =   184.3586

     99  H    Isotropic =    23.9243   Anisotropy =     9.9280

    100  C    Isotropic =    50.7673   Anisotropy =   186.6001

    101  H    Isotropic =    23.8785   Anisotropy =    11.0744

    102  C    Isotropic =    51.4344   Anisotropy =   163.0916

    103  C    Isotropic =    50.8833   Anisotropy =   186.5523

    104  H    Isotropic =    23.5069   Anisotropy =    12.1333

    105  C    Isotropic =    44.9526   Anisotropy =   194.2152

    106  H    Isotropic =    24.3242   Anisotropy =     7.3376

    107  H    Isotropic =    24.2770   Anisotropy =     5.6167

    108  C    Isotropic =    49.7382   Anisotropy =   187.4588

    109  H    Isotropic =    23.9146   Anisotropy =     8.8686

    110  H    Isotropic =    24.0577   Anisotropy =     6.5435

    111  H    Isotropic =    24.1085   Anisotropy =     5.0634

    112  H    Isotropic =    24.0174   Anisotropy =     5.2065

 The electronic state is 1-A.
 Alpha  occ. eigenvalues --  -77.23202 -77.23052 -19.24544 -19.24377 -19.24180
 Alpha  occ. eigenvalues --  -19.24156 -10.35800 -10.35266 -10.33006 -10.32911
 Alpha  occ. eigenvalues --  -10.29862 -10.29390 -10.29371 -10.29283 -10.28916
 Alpha  occ. eigenvalues --  -10.28888 -10.28840 -10.28127 -10.28119 -10.27963
 Alpha  occ. eigenvalues --  -10.27941 -10.27937 -10.27744 -10.27502 -10.27490
 Alpha  occ. eigenvalues --  -10.27387 -10.27325 -10.27294 -10.27265 -10.27170
 Alpha  occ. eigenvalues --  -10.27115 -10.27066 -10.27017 -10.26955 -10.26924
 Alpha  occ. eigenvalues --  -10.26900 -10.26873 -10.26863 -10.26851 -10.26108
 Alpha  occ. eigenvalues --  -10.26080 -10.25354 -10.25300 -10.25273 -10.25241
 Alpha  occ. eigenvalues --  -10.25203 -10.25158 -10.25120 -10.25097 -10.25084
 Alpha  occ. eigenvalues --  -10.24964 -10.24937 -10.24752 -10.24637 -10.24634
 Alpha  occ. eigenvalues --  -10.24592 -10.24497 -10.24293 -10.24173 -10.23737
 Alpha  occ. eigenvalues --  -10.23370  -6.87732  -6.87470  -6.69238  -6.69104
 Alpha  occ. eigenvalues --   -4.85520  -4.85438  -4.85391  -4.85297  -4.85134
 Alpha  occ. eigenvalues --   -4.85002  -3.31783  -2.08693  -2.07997  -2.05223
 Alpha  occ. eigenvalues --   -1.16856  -1.16578  -1.12821  -1.12502  -0.96414
 Alpha  occ. eigenvalues --   -0.96340  -0.96165  -0.95992  -0.94505  -0.92918
 Alpha  occ. eigenvalues --   -0.92593  -0.91848  -0.91774  -0.89182  -0.89158
 Alpha  occ. eigenvalues --   -0.88031  -0.86796  -0.86081  -0.85781  -0.85051
 Alpha  occ. eigenvalues --   -0.84880  -0.84741  -0.84667  -0.83875  -0.82328
 Alpha  occ. eigenvalues --   -0.82060  -0.82052  -0.81726  -0.81006  -0.80862
 Alpha  occ. eigenvalues --   -0.80347  -0.79248  -0.78131  -0.77805  -0.73613
 Alpha  occ. eigenvalues --   -0.72306  -0.72189  -0.71941  -0.71157  -0.71083
 Alpha  occ. eigenvalues --   -0.70844  -0.70613  -0.70453  -0.69219  -0.69104
 Alpha  occ. eigenvalues --   -0.67969  -0.67641  -0.67218  -0.66993  -0.66834
 Alpha  occ. eigenvalues --   -0.66345  -0.65956  -0.63304  -0.63189  -0.62568
 Alpha  occ. eigenvalues --   -0.62362  -0.62152  -0.61920  -0.61848  -0.61390
 Alpha  occ. eigenvalues --   -0.60940  -0.60198  -0.59101  -0.58872  -0.58002
 Alpha  occ. eigenvalues --   -0.57395  -0.57082  -0.56914  -0.56678  -0.56530
 Alpha  occ. eigenvalues --   -0.56319  -0.56042  -0.55749  -0.55570  -0.55209
 Alpha  occ. eigenvalues --   -0.54733  -0.54700  -0.54573  -0.53615  -0.53594
 Alpha  occ. eigenvalues --   -0.52775  -0.52688  -0.52594  -0.52430  -0.52374
 Alpha  occ. eigenvalues --   -0.52357  -0.52226  -0.52201  -0.51879  -0.51742
 Alpha  occ. eigenvalues --   -0.51446  -0.51062  -0.50953  -0.50748  -0.50132
 Alpha  occ. eigenvalues --   -0.50059  -0.49543  -0.49465  -0.49361  -0.49215
 Alpha  occ. eigenvalues --   -0.49084  -0.48539  -0.48208  -0.47933  -0.47890
 Alpha  occ. eigenvalues --   -0.47734  -0.47493  -0.46972  -0.46912  -0.46597
 Alpha  occ. eigenvalues --   -0.46240  -0.45946  -0.45718  -0.45624  -0.45119
 Alpha  occ. eigenvalues --   -0.44865  -0.44623  -0.44255  -0.44125  -0.44055
 Alpha  occ. eigenvalues --   -0.43958  -0.43818  -0.43385  -0.43159  -0.42923
 Alpha  occ. eigenvalues --   -0.42567  -0.42359  -0.42278  -0.42104  -0.41736
 Alpha  occ. eigenvalues --   -0.41551  -0.41361  -0.40634  -0.40550  -0.40459
 Alpha  occ. eigenvalues --   -0.40280  -0.39815  -0.39656  -0.37902  -0.37025
 Alpha  occ. eigenvalues --   -0.36260  -0.36178  -0.35775  -0.35692  -0.35411
 Alpha  occ. eigenvalues --   -0.35029  -0.34812  -0.34480  -0.33921  -0.33330
 Alpha  occ. eigenvalues --   -0.33141  -0.32947  -0.32851  -0.32621  -0.32541
 Alpha  occ. eigenvalues --   -0.30957  -0.29678  -0.29589
 Alpha virt. eigenvalues --   -0.16357  -0.14893  -0.13375  -0.13178  -0.13018
 Alpha virt. eigenvalues --   -0.12158  -0.11638  -0.11295  -0.10978  -0.10878
 Alpha virt. eigenvalues --   -0.10762  -0.10280  -0.09204  -0.08468  -0.08070

 Mulliken charges:
               1
     1  P    0.368341
     2  C   -0.196458
     3  C   -0.028097
     4  C   -0.094884
     5  C   -0.093419
     6  C   -0.092380
     7  C   -0.042885
     8  H    0.143434
     9  H    0.134623
    10  H    0.138039
    11  H    0.129836
    12  H    0.104538
    13  C   -0.568975
    14  P    0.287304
    15  H    0.217468
    16  H    0.230034
    17  Rh  -0.557329
    18  C    0.005874
    19  C   -0.108022
    20  C   -0.046963
    21  C   -0.111890
    22  C   -0.358301
    23  H    0.191819
    24  H    0.166121
    25  C   -0.234002
    26  C   -0.353295
    27  H    0.210759
    28  C   -0.224357
    29  H    0.244825
    30  H    0.167938
    31  H    0.169382
    32  H    0.170002
    33  H    0.136081
    34  H    0.168722
    35  H    0.171243
    36  H    0.130491
    37  H    0.171046
    38  C   -0.074868
    39  C   -0.161756
    40  C   -0.062416
    41  C   -0.084790
    42  H    0.179252
    43  C   -0.074996
    44  H    0.143485
    45  C   -0.092758
    46  H    0.130378
    47  H    0.132175
    48  H    0.136007
    49  C   -0.238420
    50  H    0.217932
    51  O   -0.266369
    52  C    0.281811
    53  B    0.425884
    54  O   -0.209770
    55  C   -0.258059
    56  C   -0.073893
    57  C   -0.051679
    58  C   -0.118430
    59  H    0.124438
    60  C   -0.123336
    61  H    0.144739
    62  C   -0.070000
    63  H    0.119263
    64  H    0.122816
    65  H    0.128499
    66  C   -0.057284
    67  C   -0.165477
    68  C    0.104786
    69  C   -0.158570
    70  C   -0.078165
    71  C   -0.091150
    72  H    0.111135
    73  H    0.123709
    74  H    0.114671
    75  C   -0.177871
    76  H    0.144333
    77  H    0.121317
    78  C   -0.064035
    79  C   -0.170489
    80  H    0.123195
    81  C   -0.168636
    82  H    0.233663
    83  O   -0.273055
    84  C   -0.127619
    85  B    0.441425
    86  C    0.310603
    87  C   -0.248201
    88  O   -0.217466
    89  C   -0.264912
    90  C   -0.144459
    91  C   -0.148494
    92  H    0.128590
    93  C   -0.062916
    94  C   -0.046065
    95  C    0.101160
    96  C   -0.085032
    97  H    0.111847
    98  C   -0.135084
    99  H    0.133958
   100  C   -0.130650
   101  H    0.142382
   102  C   -0.162323
   103  C   -0.087713
   104  H    0.143384
   105  C   -0.063405
   106  H    0.119279
   107  H    0.120967
   108  C   -0.058399
   109  H    0.113083
   110  H    0.121808
   111  H    0.126885
   112  H    0.123489
 Sum of Mulliken charges =   1.00000

 Dipole moment (field-independent basis, Debye):
    X=              0.6762    Y=             -4.9737    Z=             -0.9887  Tot=              5.1159
 Quadrupole moment (field-independent basis, Debye-Ang):
   XX=           -298.1938   YY=           -311.8658   ZZ=           -363.9292
   XY=              0.9222   XZ=            -21.3404   YZ=             -2.3715

 Summary of Natural Population Analysis:

                                       Natural Population
                Natural  -----------------------------------------------
    Atom  No    Charge         Core      Valence    Rydberg      Total
 -----------------------------------------------------------------------
      P    1    1.04017      9.99667     3.91577    0.04739    13.95983
      C    2   -0.35630      1.99899     4.33381    0.02350     6.35630
      C    3   -0.17949      1.99909     4.16512    0.01529     6.17949
      C    4   -0.19375      1.99919     4.18009    0.01447     6.19375
      C    5   -0.17283      1.99920     4.15918    0.01445     6.17283
      C    6   -0.18821      1.99919     4.17442    0.01461     6.18821
      C    7   -0.19516      1.99908     4.18020    0.01588     6.19516
      H    8    0.21715      0.00000     0.78042    0.00243     0.78285
      H    9    0.22437      0.00000     0.77437    0.00126     0.77563
      H   10    0.22284      0.00000     0.77598    0.00118     0.77716
      H   11    0.22164      0.00000     0.77713    0.00123     0.77836
      H   12    0.21606      0.00000     0.78200    0.00194     0.78394
      C   13   -0.98017      1.99942     4.96401    0.01674     6.98017
      P   14    1.05642      9.99664     3.89975    0.04720    13.94358
      H   15    0.26793      0.00000     0.73041    0.00166     0.73207
      H   16    0.26472      0.00000     0.73296    0.00232     0.73528
     Rh   17   -0.36401     35.98525     9.34969    0.02906    45.36401
      C   18   -0.18779      1.99905     4.16926    0.01947     6.18779
      C   19   -0.14710      1.99906     4.12821    0.01983     6.14710
      C   20   -0.16133      1.99906     4.14299    0.01928     6.16133
      C   21   -0.16944      1.99906     4.15037    0.02001     6.16944
      C   22   -0.42226      1.99936     4.41113    0.01176     6.42226
      H   23    0.22627      0.00000     0.77143    0.00230     0.77373
      H   24    0.21515      0.00000     0.78260    0.00225     0.78485
      C   25   -0.41816      1.99935     4.40613    0.01268     6.41816
      C   26   -0.42427      1.99936     4.41305    0.01186     6.42427
      H   27    0.23024      0.00000     0.76740    0.00235     0.76976
      C   28   -0.41831      1.99935     4.40630    0.01265     6.41831
      H   29    0.23341      0.00000     0.76407    0.00252     0.76659
      H   30    0.22773      0.00000     0.77077    0.00150     0.77227
      H   31    0.21492      0.00000     0.78308    0.00200     0.78508
      H   32    0.23290      0.00000     0.76519    0.00191     0.76710
      H   33    0.21757      0.00000     0.78087    0.00156     0.78243
      H   34    0.21385      0.00000     0.78417    0.00198     0.78615
      H   35    0.22986      0.00000     0.76869    0.00145     0.77014
      H   36    0.21451      0.00000     0.78387    0.00161     0.78549
      H   37    0.23326      0.00000     0.76482    0.00191     0.76674
      C   38   -0.35288      1.99900     4.33146    0.02241     6.35288
      C   39   -0.19403      1.99909     4.17968    0.01526     6.19403
      C   40   -0.18791      1.99909     4.17353    0.01529     6.18791
      C   41   -0.19082      1.99919     4.17701    0.01462     6.19082
      H   42    0.21689      0.00000     0.78098    0.00212     0.78311
      C   43   -0.18808      1.99919     4.17431    0.01458     6.18808
      H   44    0.21396      0.00000     0.78384    0.00220     0.78604
      C   45   -0.17610      1.99920     4.16235    0.01455     6.17610
      H   46    0.22257      0.00000     0.77619    0.00124     0.77743
      H   47    0.22316      0.00000     0.77560    0.00125     0.77684
      H   48    0.22241      0.00000     0.77641    0.00118     0.77759
      C   49   -0.10558      1.99914     4.08095    0.02549     6.10558
      H   50    0.20799      0.00000     0.78889    0.00311     0.79201
      O   51   -0.67563      1.99970     6.66415    0.01178     8.67563
      C   52    0.32605      1.99861     3.65337    0.02196     5.67395
      B   53    1.10557      1.99897     1.86449    0.03097     3.89443
      O   54   -0.64681      1.99969     6.63708    0.01004     8.64681
      C   55   -0.41379      1.99896     4.39822    0.01661     6.41379
      C   56   -0.15510      1.99918     4.14120    0.01472     6.15510
      C   57   -0.14634      1.99918     4.13274    0.01442     6.14634
      C   58   -0.21396      1.99920     4.19956    0.01519     6.21396
      H   59    0.20909      0.00000     0.78933    0.00158     0.79091
      C   60   -0.20975      1.99920     4.19552    0.01502     6.20975
      H   61    0.21469      0.00000     0.78378    0.00153     0.78531
      C   62   -0.17654      1.99921     4.16230    0.01503     6.17654
      H   63    0.21288      0.00000     0.78581    0.00132     0.78712
      H   64    0.21586      0.00000     0.78286    0.00128     0.78414
      H   65    0.21517      0.00000     0.78363    0.00120     0.78483
      C   66   -0.18817      1.99921     4.17411    0.01485     6.18817
      C   67   -0.17571      1.99914     4.16248    0.01409     6.17571
      C   68   -0.04260      1.99911     4.02737    0.01612     6.04260
      C   69   -0.08481      1.99903     4.06829    0.01748     6.08481
      C   70   -0.17242      1.99915     4.15846    0.01482     6.17242
      C   71   -0.19096      1.99921     4.17698    0.01477     6.19096
      H   72    0.21538      0.00000     0.78319    0.00143     0.78462
      H   73    0.21866      0.00000     0.78016    0.00118     0.78134
      H   74    0.21317      0.00000     0.78536    0.00147     0.78683
      C   75   -0.17555      1.99914     4.16210    0.01431     6.17555
      H   76    0.22555      0.00000     0.77278    0.00167     0.77445
      H   77    0.21791      0.00000     0.78091    0.00118     0.78209
      C   78   -0.15410      1.99894     4.13901    0.01615     6.15410
      C   79   -0.19769      1.99913     4.18334    0.01522     6.19769
      H   80    0.20276      0.00000     0.79511    0.00213     0.79724
      C   81   -0.11366      1.99913     4.08792    0.02661     6.11366
      H   82    0.22010      0.00000     0.77658    0.00332     0.77990
      O   83   -0.67893      1.99970     6.66716    0.01207     8.67893
      C   84   -0.15656      1.99894     4.14154    0.01608     6.15656
      B   85    1.11165      1.99897     1.85835    0.03103     3.88835
      C   86    0.32705      1.99861     3.65276    0.02158     5.67295
      C   87   -0.19855      1.99914     4.18451    0.01490     6.19855
      O   88   -0.64821      1.99969     6.63839    0.01013     8.64821
      C   89   -0.41163      1.99896     4.39609    0.01659     6.41163
      C   90   -0.08730      1.99903     4.07130    0.01696     6.08730
      C   91   -0.18191      1.99913     4.16833    0.01444     6.18191
      H   92    0.21343      0.00000     0.78455    0.00202     0.78657
      C   93   -0.15328      1.99918     4.13949    0.01461     6.15328
      C   94   -0.14519      1.99918     4.13163    0.01438     6.14519
      C   95   -0.04464      1.99912     4.02870    0.01682     6.04464
      C   96   -0.17295      1.99915     4.15896    0.01485     6.17295
      H   97    0.21338      0.00000     0.78500    0.00162     0.78662
      C   98   -0.21414      1.99920     4.19977    0.01517     6.21414
      H   99    0.20746      0.00000     0.79097    0.00157     0.79254
      C  100   -0.21052      1.99920     4.19630    0.01502     6.21052
      H  101    0.21391      0.00000     0.78456    0.00154     0.78609
      C  102   -0.17648      1.99914     4.16312    0.01421     6.17648
      C  103   -0.19168      1.99921     4.17771    0.01476     6.19168
      H  104    0.22627      0.00000     0.77202    0.00171     0.77373
      C  105   -0.17742      1.99921     4.16321    0.01501     6.17742
      H  106    0.21256      0.00000     0.78608    0.00136     0.78744
      H  107    0.21495      0.00000     0.78376    0.00128     0.78505
      C  108   -0.18865      1.99921     4.17461    0.01484     6.18865
      H  109    0.21298      0.00000     0.78560    0.00141     0.78702
      H  110    0.21804      0.00000     0.78078    0.00118     0.78196
      H  111    0.21449      0.00000     0.78430    0.00121     0.78551
      H  112    0.21865      0.00000     0.78018    0.00117     0.78135
 =======================================================================
   * Total *    1.00000    177.92736   314.86887    1.20377   494.00000

 Normal termination of Gaussian 16 at Wed Jan 22 03:04:26 2025.
