 Gaussian 16, Revision B.01,
 Gaussian 16:  ES64L-G16RevB.01 20-Dec-2017

 ------------------------------------------
 # nmr=giao b3lyp/genecp pop=nbo scfcyc=200
 ------------------------------------------

 ----------
 MB-120_SPE
 ----------
 Symbolic Z-matrix:
 Charge =  1 Multiplicity = 1

                         Standard orientation:
 ---------------------------------------------------------------------
 Center     Atomic      Atomic             Coordinates (Angstroms)
 Number     Number       Type             X           Y           Z
 ---------------------------------------------------------------------
      1         15           0        1.402911    0.244969    0.342400
      2         15           0       -1.388679    0.250321    0.338890
      3          8           0        4.002270   -0.901652   -0.301120
      4          8           0        2.330262    3.081039    0.770130
      5          8           0       -2.377578    3.046151    0.864660
      6          8           0       -3.989810   -0.892308   -0.313380
      7          6           0        0.007811    1.023170    1.310900
      8          1           0        0.008482    2.105790    1.395860
      9          1           0        0.008421    0.573700    2.302840
     10          6           0        2.819520    0.027739    1.502540
     11          6           0        4.005800   -0.554452    1.016420
     12          6           0        5.093600   -0.747463    1.866890
     13          1           0        6.007680   -1.190763    1.499360
     14          6           0        5.002870   -0.371553    3.203220
     15          1           0        5.852380   -0.529383    3.855740
     16          6           0        3.839211    0.201008    3.697610
     17          1           0        3.770831    0.497918    4.735860
     18          6           0        2.759031    0.398839    2.844210
     19          1           0        1.866511    0.867319    3.235290
     20          6           0        5.204890   -1.393523   -0.893110
     21          1           0        6.015690   -0.668003   -0.796210
     22          1           0        4.978250   -1.540663   -1.945860
     23          1           0        5.504779   -2.346213   -0.449500
     24          6           0        1.936571    1.478959   -0.909770
     25          6           0        2.368652    2.771779   -0.553720
     26          6           0        2.797332    3.656919   -1.543470
     27          1           0        3.132003    4.651068   -1.284800
     28          6           0        2.794432    3.262679   -2.877720
     29          1           0        3.130593    3.961408   -3.633760
     30          6           0        2.365832    1.993409   -3.242270
     31          1           0        2.362801    1.691339   -4.281270
     32          6           0        1.941761    1.112609   -2.254610
     33          1           0        1.607001    0.118679   -2.523740
     34          6           0        2.854333    4.334739    1.207170
     35          1           0        3.906313    4.439898    0.931820
     36          1           0        2.764073    4.330369    2.290340
     37          1           0        2.280553    5.169979    0.797620
     38          6           0       -1.944469    1.516371   -0.871820
     39          6           0       -2.405528    2.785731   -0.469830
     40          6           0       -2.848768    3.698342   -1.427630
     41          1           0       -3.207097    4.674122   -1.133130
     42          6           0       -2.828788    3.356202   -2.776090
     43          1           0       -3.176097    4.075812   -3.507070
     44          6           0       -2.367788    2.112541   -3.186130
     45          1           0       -2.349009    1.851681   -4.236040
     46          6           0       -1.930779    1.203711   -2.229860
     47          1           0       -1.568829    0.230791   -2.536480
     48          6           0       -2.928567    4.271542    1.346350
     49          1           0       -2.370917    5.133091    0.970300
     50          1           0       -2.841257    4.228432    2.428890
     51          1           0       -3.981717    4.365472    1.071370
     52          6           0       -2.791230   -0.014988    1.507050
     53          6           0       -3.977910   -0.591958    1.015890
     54          6           0       -5.052830   -0.825557    1.872480
     55          1           0       -5.967290   -1.264597    1.500820
     56          6           0       -4.949100   -0.495947    3.220030
     57          1           0       -5.788670   -0.685267    3.877000
     58          6           0       -3.785010    0.071162    3.719400
     59          1           0       -3.706099    0.332582    4.766420
     60          6           0       -2.717959    0.309782    2.859930
     61          1           0       -1.825669    0.773711    3.256680
     62          6           0       -5.196500   -1.373677   -0.905890
     63          1           0       -5.483131   -2.343267   -0.491050
     64          1           0       -4.983100   -1.483477   -1.965950
     65          1           0       -6.011460   -0.658477   -0.773750
     66         45           0        0.006810   -1.529650   -0.412960
     67          6           0       -1.452231   -3.261209   -0.283460
     68          6           0       -1.451021   -2.769839   -1.573620
     69          6           0        1.439959   -2.980091   -1.392780
     70          6           0        1.437569   -3.202281   -0.028920
     71          6           0       -0.750532   -4.525220    0.177140
     72          1           0       -2.218211   -2.881379    0.382070
     73          1           0       -2.237691   -2.066669   -1.823710
     74          6           0       -0.700111   -3.336510   -2.753840
     75          6           0        0.725008   -3.832870   -2.424620
     76          1           0        2.221799   -2.331921   -1.771930
     77          6           0        0.674988   -4.273600    0.711290
     78          1           0        2.234599   -2.742851    0.544030
     79          1           0       -1.343312   -4.981709    0.971720
     80          1           0       -0.729662   -5.250540   -0.636420
     81          1           0       -1.279632   -4.148789   -3.210600
     82          1           0       -0.637601   -2.554430   -3.514290
     83          1           0        0.696588   -4.869550   -2.088680
     84          1           0        1.312418   -3.833301   -3.344580
     85          1           0        0.615698   -3.971930    1.759110
     86          1           0        1.247638   -5.209891    0.701130
 ---------------------------------------------------------------------

 SCF Done:  E(RB3LYP) =  -2529.87495896     A.U. after   16 cycles

      1  P    Isotropic =   322.7353   Anisotropy =    68.4449

      2  P    Isotropic =   324.8859   Anisotropy =    67.8015

      3  O    Isotropic =   214.6072   Anisotropy =    94.0166

      4  O    Isotropic =   211.6942   Anisotropy =   104.7907

      5  O    Isotropic =   211.4195   Anisotropy =   104.7456

      6  O    Isotropic =   215.4607   Anisotropy =    92.7072

      7  C    Isotropic =   145.8188   Anisotropy =    36.0239

      8  H    Isotropic =    27.6723   Anisotropy =    10.3803

      9  H    Isotropic =    27.3790   Anisotropy =     5.5367

     10  C    Isotropic =    56.9921   Anisotropy =   140.5231

     11  C    Isotropic =    15.7569   Anisotropy =   138.2148

     12  C    Isotropic =    69.9533   Anisotropy =   159.4560

     13  H    Isotropic =    25.1317   Anisotropy =     8.5513

     14  C    Isotropic =    45.4242   Anisotropy =   192.0598

     15  H    Isotropic =    24.1807   Anisotropy =     3.9643

     16  C    Isotropic =    58.4492   Anisotropy =   174.8878

     17  H    Isotropic =    24.4993   Anisotropy =     5.7922

     18  C    Isotropic =    48.0638   Anisotropy =   182.7726

     19  H    Isotropic =    24.0940   Anisotropy =    11.6316

     20  C    Isotropic =   128.8458   Anisotropy =    77.9837

     21  H    Isotropic =    28.7985   Anisotropy =    10.4398

     22  H    Isotropic =    28.2728   Anisotropy =     8.7111

     23  H    Isotropic =    28.4264   Anisotropy =    10.0813

     24  C    Isotropic =    58.6442   Anisotropy =   141.3540

     25  C    Isotropic =    15.5847   Anisotropy =   136.2884

     26  C    Isotropic =    70.5146   Anisotropy =   159.4090

     27  H    Isotropic =    25.4254   Anisotropy =     7.3703

     28  C    Isotropic =    44.2403   Anisotropy =   195.2600

     29  H    Isotropic =    24.3886   Anisotropy =     3.4577

     30  C    Isotropic =    59.5449   Anisotropy =   174.2115

     31  H    Isotropic =    24.7868   Anisotropy =     6.0102

     32  C    Isotropic =    39.0846   Anisotropy =   178.6873

     33  H    Isotropic =    23.5072   Anisotropy =     8.8127

     34  C    Isotropic =   128.9733   Anisotropy =    78.4233

     35  H    Isotropic =    28.8388   Anisotropy =    10.4484

     36  H    Isotropic =    28.1442   Anisotropy =     9.3489

     37  H    Isotropic =    28.4797   Anisotropy =    10.0024

     38  C    Isotropic =    58.0091   Anisotropy =   141.1572

     39  C    Isotropic =    15.6574   Anisotropy =   136.4608

     40  C    Isotropic =    70.5033   Anisotropy =   159.4014

     41  H    Isotropic =    25.4019   Anisotropy =     7.3971

     42  C    Isotropic =    44.3055   Anisotropy =   195.0971

     43  H    Isotropic =    24.3909   Anisotropy =     3.5126

     44  C    Isotropic =    59.4898   Anisotropy =   174.4217

     45  H    Isotropic =    24.8260   Anisotropy =     6.0331

     46  C    Isotropic =    39.7462   Anisotropy =   179.1073

     47  H    Isotropic =    23.6834   Anisotropy =     8.4645

     48  C    Isotropic =   128.9878   Anisotropy =    78.3962

     49  H    Isotropic =    28.4566   Anisotropy =    10.0790

     50  H    Isotropic =    28.1466   Anisotropy =     9.3425

     51  H    Isotropic =    28.8389   Anisotropy =    10.4146

     52  C    Isotropic =    56.4890   Anisotropy =   140.9634

     53  C    Isotropic =    15.7359   Anisotropy =   138.2007

     54  C    Isotropic =    70.0131   Anisotropy =   159.2959

     55  H    Isotropic =    25.1528   Anisotropy =     8.5993

     56  C    Isotropic =    45.5998   Anisotropy =   191.7408

     57  H    Isotropic =    24.1998   Anisotropy =     3.9604

     58  C    Isotropic =    58.4208   Anisotropy =   174.8602

     59  H    Isotropic =    24.5069   Anisotropy =     5.7704

     60  C    Isotropic =    48.2925   Anisotropy =   182.5090

     61  H    Isotropic =    24.0836   Anisotropy =    11.5832

     62  C    Isotropic =   128.9402   Anisotropy =    77.8110

     63  H    Isotropic =    28.4451   Anisotropy =    10.0759

     64  H    Isotropic =    28.2509   Anisotropy =     8.6813

     65  H    Isotropic =    28.7996   Anisotropy =    10.4349

     66  Rh   Isotropic =  -317.9923   Anisotropy =   348.1584

     67  C    Isotropic =    76.7069   Anisotropy =   126.2399

     68  C    Isotropic =    80.3495   Anisotropy =   112.1809

     69  C    Isotropic =    83.7538   Anisotropy =   114.7558

     70  C    Isotropic =    74.5216   Anisotropy =   121.3975

     71  C    Isotropic =   153.7320   Anisotropy =    25.2919

     72  H    Isotropic =    27.2043   Anisotropy =     6.8550

     73  H    Isotropic =    25.9330   Anisotropy =     4.8138

     74  C    Isotropic =   147.5810   Anisotropy =    30.0725

     75  C    Isotropic =   153.6904   Anisotropy =    24.9741

     76  H    Isotropic =    26.6916   Anisotropy =     6.5446

     77  C    Isotropic =   147.4928   Anisotropy =    30.9073

     78  H    Isotropic =    26.7890   Anisotropy =     6.1762

     79  H    Isotropic =    30.1034   Anisotropy =    10.9536

     80  H    Isotropic =    29.8285   Anisotropy =     9.5459

     81  H    Isotropic =    28.9466   Anisotropy =    12.5641

     82  H    Isotropic =    28.7536   Anisotropy =     7.7770

     83  H    Isotropic =    29.7075   Anisotropy =     9.5756

     84  H    Isotropic =    29.6527   Anisotropy =    11.4189

     85  H    Isotropic =    29.4130   Anisotropy =     6.6291

     86  H    Isotropic =    29.3652   Anisotropy =    12.4675

 The electronic state is 1-A.
 Alpha  occ. eigenvalues --  -77.22465 -77.22465 -19.25397 -19.25393 -19.25203
 Alpha  occ. eigenvalues --  -19.25190 -10.33391 -10.33370 -10.33311 -10.33306
 Alpha  occ. eigenvalues --  -10.31318 -10.31316 -10.31203 -10.31194 -10.28411
 Alpha  occ. eigenvalues --  -10.28120 -10.28114 -10.27769 -10.27766 -10.27626
 Alpha  occ. eigenvalues --  -10.27540 -10.27451 -10.27329 -10.27295 -10.27273
 Alpha  occ. eigenvalues --  -10.27037 -10.27015 -10.26736 -10.26714 -10.26711
 Alpha  occ. eigenvalues --  -10.26708 -10.26495 -10.26474 -10.26430 -10.26324
 Alpha  occ. eigenvalues --  -10.26321 -10.26221 -10.26166 -10.26063 -10.25859
 Alpha  occ. eigenvalues --  -10.25837 -10.25649 -10.25645  -6.68372  -6.68367
 Alpha  occ. eigenvalues --   -4.84665  -4.84661  -4.84598  -4.84593  -4.84273
 Alpha  occ. eigenvalues --   -4.84268  -3.30184  -2.07067  -2.06392  -2.03668
 Alpha  occ. eigenvalues --   -1.16463  -1.16450  -1.16313  -1.16304  -0.95395
 Alpha  occ. eigenvalues --   -0.95238  -0.94867  -0.94816  -0.93140  -0.88555
 Alpha  occ. eigenvalues --   -0.87748  -0.86777  -0.86670  -0.85195  -0.85112
 Alpha  occ. eigenvalues --   -0.84809  -0.84567  -0.84307  -0.84213  -0.82922
 Alpha  occ. eigenvalues --   -0.79231  -0.79064  -0.78950  -0.78941  -0.78840
 Alpha  occ. eigenvalues --   -0.76495  -0.74603  -0.72644  -0.70276  -0.70245
 Alpha  occ. eigenvalues --   -0.69321  -0.69095  -0.68902  -0.68606  -0.68585
 Alpha  occ. eigenvalues --   -0.66346  -0.65801  -0.64543  -0.63178  -0.63023
 Alpha  occ. eigenvalues --   -0.62080  -0.61655  -0.61162  -0.58976  -0.58433
 Alpha  occ. eigenvalues --   -0.58203  -0.57885  -0.57661  -0.57468  -0.57185
 Alpha  occ. eigenvalues --   -0.56920  -0.56678  -0.56400  -0.56121  -0.56098
 Alpha  occ. eigenvalues --   -0.55927  -0.55183  -0.55057  -0.54491  -0.53966
 Alpha  occ. eigenvalues --   -0.53810  -0.53477  -0.53462  -0.52692  -0.52437
 Alpha  occ. eigenvalues --   -0.51521  -0.51454  -0.51271  -0.51155  -0.51121
 Alpha  occ. eigenvalues --   -0.50943  -0.50135  -0.49101  -0.48569  -0.48148
 Alpha  occ. eigenvalues --   -0.47682  -0.47506  -0.47462  -0.46880  -0.46642
 Alpha  occ. eigenvalues --   -0.46505  -0.45749  -0.45546  -0.45412  -0.45306
 Alpha  occ. eigenvalues --   -0.45265  -0.45083  -0.45022  -0.44756  -0.44027
 Alpha  occ. eigenvalues --   -0.43088  -0.42386  -0.42193  -0.42071  -0.41995
 Alpha  occ. eigenvalues --   -0.41730  -0.41693  -0.41605  -0.41501  -0.41338
 Alpha  occ. eigenvalues --   -0.40999  -0.40174  -0.36825  -0.36159  -0.35481
 Alpha  occ. eigenvalues --   -0.34558  -0.34478  -0.34215  -0.33573  -0.33280
 Alpha  occ. eigenvalues --   -0.32443  -0.32176  -0.31920  -0.31896  -0.31716
 Alpha  occ. eigenvalues --   -0.29312
 Alpha virt. eigenvalues --   -0.14813  -0.13450  -0.12533  -0.11403  -0.10894
 Alpha virt. eigenvalues --   -0.09831  -0.09643  -0.09228  -0.09171  -0.08444
 Alpha virt. eigenvalues --   -0.07919  -0.06652  -0.06228  -0.05357  -0.05278

 Mulliken charges:
               1
     1  P    0.405537
     2  P    0.380874
     3  O   -0.240740
     4  O   -0.223881
     5  O   -0.223097
     6  O   -0.244165
     7  C   -0.515651
     8  H    0.246281
     9  H    0.146204
    10  C   -0.149697
    11  C    0.080405
    12  C   -0.091838
    13  H    0.146940
    14  C   -0.123363
    15  H    0.130086
    16  C   -0.086355
    17  H    0.123861
    18  C   -0.067085
    19  H    0.118699
    20  C   -0.219111
    21  H    0.145906
    22  H    0.148952
    23  H    0.139663
    24  C   -0.246031
    25  C    0.147330
    26  C   -0.107892
    27  H    0.144635
    28  C   -0.105658
    29  H    0.128583
    30  C   -0.112335
    31  H    0.119417
    32  C   -0.011566
    33  H    0.132949
    34  C   -0.220170
    35  H    0.142532
    36  H    0.149812
    37  H    0.135411
    38  C   -0.226967
    39  C    0.143311
    40  C   -0.107827
    41  H    0.144196
    42  C   -0.105744
    43  H    0.128669
    44  C   -0.111859
    45  H    0.119092
    46  C   -0.020294
    47  H    0.136057
    48  C   -0.219729
    49  H    0.135056
    50  H    0.150058
    51  H    0.142206
    52  C   -0.116314
    53  C    0.064560
    54  C   -0.092575
    55  H    0.146905
    56  C   -0.124233
    57  H    0.129859
    58  C   -0.085831
    59  H    0.123647
    60  C   -0.069595
    61  H    0.116852
    62  C   -0.218717
    63  H    0.139530
    64  H    0.148927
    65  H    0.145742
    66  Rh  -0.596824
    67  C   -0.045586
    68  C   -0.063833
    69  C   -0.013301
    70  C   -0.096409
    71  C   -0.343178
    72  H    0.197162
    73  H    0.183786
    74  C   -0.220764
    75  C   -0.341975
    76  H    0.173481
    77  C   -0.222059
    78  H    0.206007
    79  H    0.164330
    80  H    0.164023
    81  H    0.163777
    82  H    0.126194
    83  H    0.165222
    84  H    0.162146
    85  H    0.133965
    86  H    0.163415
 Sum of Mulliken charges =   1.00000

 Dipole moment (field-independent basis, Debye):
    X=             -0.0103    Y=              1.6071    Z=              0.2433  Tot=              1.6255
 Quadrupole moment (field-independent basis, Debye-Ang):
   XX=           -205.5096   YY=           -224.2819   ZZ=           -246.1809
   XY=             -0.0282   XZ=             -0.3177   YZ=              8.8424

 Summary of Natural Population Analysis:

                                       Natural Population
                Natural  -----------------------------------------------
    Atom  No    Charge         Core      Valence    Rydberg      Total
 -----------------------------------------------------------------------
      P    1    1.12380      9.99652     3.82630    0.05338    13.87620
      P    2    1.12026      9.99655     3.82986    0.05333    13.87974
      O    3   -0.46552      1.99976     6.45008    0.01568     8.46552
      O    4   -0.46533      1.99976     6.44859    0.01697     8.46533
      O    5   -0.46505      1.99976     6.44827    0.01701     8.46505
      O    6   -0.46653      1.99976     6.45109    0.01568     8.46653
      C    7   -0.97331      1.99940     4.95723    0.01668     6.97331
      H    8    0.27195      0.00000     0.72593    0.00213     0.72805
      H    9    0.25216      0.00000     0.74617    0.00166     0.74784
      C   10   -0.36450      1.99888     4.34201    0.02360     6.36450
      C   11    0.29397      1.99868     3.68507    0.02228     5.70603
      C   12   -0.28468      1.99908     4.27176    0.01384     6.28468
      H   13    0.22385      0.00000     0.77425    0.00190     0.77615
      C   14   -0.16132      1.99922     4.14692    0.01519     6.16132
      H   15    0.22057      0.00000     0.77828    0.00115     0.77943
      C   16   -0.22784      1.99919     4.21340    0.01525     6.22784
      H   17    0.22022      0.00000     0.77856    0.00121     0.77978
      C   18   -0.16660      1.99911     4.15189    0.01560     6.16660
      H   19    0.20741      0.00000     0.79047    0.00213     0.79259
      C   20   -0.25501      1.99927     4.24271    0.01303     6.25501
      H   21    0.18379      0.00000     0.81426    0.00195     0.81621
      H   22    0.20118      0.00000     0.79752    0.00130     0.79882
      H   23    0.17884      0.00000     0.81913    0.00203     0.82116
      C   24   -0.37799      1.99889     4.35313    0.02597     6.37799
      C   25    0.30356      1.99868     3.67483    0.02293     5.69644
      C   26   -0.28866      1.99908     4.27573    0.01385     6.28866
      H   27    0.22248      0.00000     0.77560    0.00192     0.77752
      C   28   -0.15544      1.99922     4.14109    0.01513     6.15544
      H   29    0.21889      0.00000     0.77996    0.00116     0.78111
      C   30   -0.23430      1.99918     4.21993    0.01519     6.23430
      H   31    0.21854      0.00000     0.78023    0.00123     0.78146
      C   32   -0.14925      1.99912     4.13466    0.01547     6.14925
      H   33    0.21885      0.00000     0.77919    0.00196     0.78115
      C   34   -0.25468      1.99927     4.24249    0.01292     6.25468
      H   35    0.18244      0.00000     0.81554    0.00202     0.81756
      H   36    0.20155      0.00000     0.79716    0.00129     0.79845
      H   37    0.17657      0.00000     0.82138    0.00205     0.82343
      C   38   -0.37744      1.99889     4.35276    0.02580     6.37744
      C   39    0.30309      1.99868     3.67527    0.02296     5.69691
      C   40   -0.28887      1.99908     4.27592    0.01386     6.28887
      H   41    0.22247      0.00000     0.77561    0.00192     0.77753
      C   42   -0.15584      1.99922     4.14150    0.01512     6.15584
      H   43    0.21893      0.00000     0.77991    0.00116     0.78107
      C   44   -0.23379      1.99918     4.21940    0.01521     6.23379
      H   45    0.21872      0.00000     0.78005    0.00123     0.78128
      C   46   -0.15006      1.99912     4.13552    0.01542     6.15006
      H   47    0.21691      0.00000     0.78101    0.00209     0.78309
      C   48   -0.25465      1.99927     4.24245    0.01292     6.25465
      H   49    0.17641      0.00000     0.82154    0.00205     0.82359
      H   50    0.20175      0.00000     0.79695    0.00129     0.79825
      H   51    0.18233      0.00000     0.81565    0.00202     0.81767
      C   52   -0.36109      1.99888     4.33847    0.02373     6.36109
      C   53    0.29394      1.99868     3.68504    0.02234     5.70606
      C   54   -0.28480      1.99908     4.27190    0.01383     6.28480
      H   55    0.22368      0.00000     0.77442    0.00190     0.77632
      C   56   -0.16193      1.99922     4.14751    0.01520     6.16193
      H   57    0.22047      0.00000     0.77838    0.00115     0.77953
      C   58   -0.22778      1.99919     4.21334    0.01525     6.22778
      H   59    0.22012      0.00000     0.77867    0.00121     0.77988
      C   60   -0.16644      1.99911     4.15176    0.01557     6.16644
      H   61    0.20686      0.00000     0.79102    0.00212     0.79314
      C   62   -0.25505      1.99927     4.24278    0.01300     6.25505
      H   63    0.17874      0.00000     0.81923    0.00203     0.82126
      H   64    0.20132      0.00000     0.79739    0.00129     0.79868
      H   65    0.18392      0.00000     0.81413    0.00195     0.81608
     Rh   66   -0.36201     35.98539     9.34769    0.02892    45.36201
      C   67   -0.16316      1.99907     4.14466    0.01942     6.16316
      C   68   -0.17753      1.99906     4.15873    0.01973     6.17753
      C   69   -0.19114      1.99906     4.17268    0.01940     6.19114
      C   70   -0.15105      1.99908     4.13196    0.02002     6.15105
      C   71   -0.42335      1.99936     4.41165    0.01234     6.42335
      H   72    0.23065      0.00000     0.76717    0.00218     0.76935
      H   73    0.23290      0.00000     0.76477    0.00234     0.76710
      C   74   -0.41789      1.99936     4.40635    0.01218     6.41789
      C   75   -0.42145      1.99936     4.41043    0.01165     6.42145
      H   76    0.22996      0.00000     0.76775    0.00229     0.77004
      C   77   -0.41773      1.99935     4.40555    0.01282     6.41773
      H   78    0.23122      0.00000     0.76662    0.00216     0.76878
      H   79    0.22627      0.00000     0.77226    0.00147     0.77373
      H   80    0.21160      0.00000     0.78642    0.00198     0.78840
      H   81    0.22883      0.00000     0.76918    0.00199     0.77117
      H   82    0.21431      0.00000     0.78418    0.00152     0.78569
      H   83    0.21252      0.00000     0.78551    0.00197     0.78748
      H   84    0.22394      0.00000     0.77453    0.00154     0.77606
      H   85    0.21731      0.00000     0.78116    0.00153     0.78269
      H   86    0.22900      0.00000     0.76910    0.00190     0.77100
 =======================================================================
   * Total *    1.00000    137.94436   231.15658    0.89906   370.00000

 Normal termination of Gaussian 16 at Wed Jan 22 00:37:27 2025.
