 Gaussian 16, Revision B.01,
 Gaussian 16:  ES64L-G16RevB.01 20-Dec-2017

 ------------------------------------------
 # nmr=giao b3lyp/genecp pop=nbo scfcyc=200
 ------------------------------------------

 -------------
 Ligand 48 SPE
 -------------
 Symbolic Z-matrix:
 Charge =  1 Multiplicity = 1

                         Standard orientation:
 ---------------------------------------------------------------------
 Center     Atomic      Atomic             Coordinates (Angstroms)
 Number     Number       Type             X           Y           Z
 ---------------------------------------------------------------------
      1         15           0       -2.396700   -0.994032   -0.353830
      2         15           0        0.445120   -1.022301   -0.166100
      3          6           0        0.707340   -0.944851    2.637460
      4          1           0        0.259540    0.037779    2.554060
      5          6           0       -3.489910   -1.822452    0.934410
      6          1           0       -3.681799   -2.822843    0.535170
      7          6           0       -2.775440   -1.968182    2.280180
      8          1           0       -3.424989   -2.499792    2.979060
      9          1           0       -2.543160   -0.994872    2.715960
     10          1           0       -1.845579   -2.531452    2.204240
     11          6           0       -4.828690   -1.090963    1.091400
     12          1           0       -5.445620   -1.618383    1.821910
     13          1           0       -5.397460   -1.040963    0.162720
     14          1           0       -4.691370   -0.072613    1.460840
     15          6           0       -3.416830   -1.007652   -1.940470
     16          1           0       -4.240880   -0.322273   -1.720610
     17          6           0       -3.999539   -2.383043   -2.284550
     18          1           0       -3.214139   -3.123032   -2.456050
     19          1           0       -4.580969   -2.311633   -3.206590
     20          1           0       -4.664069   -2.767523   -1.511190
     21          6           0       -2.622900   -0.426022   -3.116350
     22          1           0       -2.197621    0.549738   -2.879500
     23          1           0       -3.280720   -0.312072   -3.980510
     24          1           0       -1.805880   -1.083912   -3.421050
     25          6           0       -0.968690   -2.156271   -0.678660
     26          1           0       -0.933929   -2.351421   -1.748550
     27          1           0       -1.000969   -3.107781   -0.148940
     28          6           0        1.856750   -1.442140   -1.312930
     29          6           0        1.715481   -2.559450   -2.147670
     30          1           0        0.836511   -3.183671   -2.081720
     31          6           0        2.686691   -2.911500   -3.075140
     32          1           0        2.543881   -3.784800   -3.698770
     33          6           0        3.830940   -2.136370   -3.191830
     34          1           0        4.597571   -2.390259   -3.912880
     35          6           0        3.997490   -1.039380   -2.359770
     36          1           0        4.906340   -0.454859   -2.424620
     37          6           0        3.040070   -0.672830   -1.404000
     38          6           0        3.708759    1.723580   -1.124990
     39          1           0        3.594089    1.848550   -2.195240
     40          6           0        3.397179    0.489770   -0.538320
     41          6           0        4.172289    2.783441   -0.355240
     42          1           0        4.408748    3.728241   -0.828800
     43          6           0        4.346059    2.627141    1.016810
     44          1           0        4.722318    3.447451    1.615140
     45          6           0        4.053329    1.404091    1.610280
     46          1           0        4.210939    1.264141    2.672610
     47          6           0        3.584519    0.343450    0.840270
     48          1           0        3.406210   -0.614470    1.308010
     49          6           0        0.936650   -1.696781    1.484540
     50          6           0        1.525091   -2.960760    1.595190
     51          1           0        1.730521   -3.550810    0.710190
     52          6           0        1.871301   -3.463440    2.843900
     53          1           0        2.329561   -4.441470    2.921110
     54          6           0        1.636791   -2.709130    3.991240
     55          1           0        1.911281   -3.101450    4.962350
     56          6           0        1.055230   -1.450421    3.886490
     57          1           0        0.875130   -0.859721    4.776080
     58         45           0       -1.027431    0.907719   -0.030540
     59          6           0       -2.603711    2.495388   -0.340300
     60          6           0       -2.445201    2.254078    1.014330
     61          6           0        0.394659    2.615229    0.530430
     62          6           0        0.251979    2.562969   -0.838890
     63          1           0       -3.422081    1.984078   -0.834550
     64          6           0       -2.040612    3.689108   -1.089420
     65          1           0       -3.161621    1.587628    1.482970
     66          6           0       -1.648792    3.082508    1.992240
     67          6           0       -0.302592    3.603119    1.444390
     68          1           0        1.250239    2.101519    0.952120
     69          1           0        1.017039    2.028729   -1.389640
     70          6           0       -0.643032    3.429919   -1.689780
     71          1           0       -2.017352    4.556338   -0.429350
     72          1           0       -2.724822    3.947768   -1.899080
     73          1           0       -2.260462    3.923438    2.342940
     74          1           0       -1.462091    2.465368    2.874000
     75          1           0        0.353708    3.821459    2.288260
     76          1           0       -0.445892    4.550099    0.923900
     77          1           0       -0.142432    4.384499   -1.895010
     78          1           0       -0.755582    2.940009   -2.659170
 ---------------------------------------------------------------------

 SCF Done:  E(RB3LYP) =  -2076.44539517     A.U. after   16 cycles

      1  P    Isotropic =   299.9246   Anisotropy =   114.9999

      2  P    Isotropic =   332.0269   Anisotropy =    93.3916

      3  C    Isotropic =    42.0863   Anisotropy =   178.4612

      4  H    Isotropic =    23.0341   Anisotropy =     7.3271

      5  C    Isotropic =   147.8797   Anisotropy =    23.9630

      6  H    Isotropic =    30.0543   Anisotropy =     6.7510

      7  C    Isotropic =   164.2003   Anisotropy =    27.5577

      8  H    Isotropic =    30.9273   Anisotropy =    11.2611

      9  H    Isotropic =    31.1680   Anisotropy =     5.3263

     10  H    Isotropic =    31.8552   Anisotropy =    10.6049

     11  C    Isotropic =   166.7486   Anisotropy =    30.7085

     12  H    Isotropic =    30.7113   Anisotropy =    12.6133

     13  H    Isotropic =    30.8725   Anisotropy =     8.6668

     14  H    Isotropic =    31.3880   Anisotropy =     5.7596

     15  C    Isotropic =   149.8868   Anisotropy =    20.6868

     16  H    Isotropic =    29.8268   Anisotropy =     5.2074

     17  C    Isotropic =   168.4179   Anisotropy =    30.3182

     18  H    Isotropic =    31.0895   Anisotropy =     7.4591

     19  H    Isotropic =    30.5851   Anisotropy =    12.6167

     20  H    Isotropic =    30.7705   Anisotropy =     9.3304

     21  C    Isotropic =   163.7530   Anisotropy =    32.0676

     22  H    Isotropic =    29.6094   Anisotropy =     9.3777

     23  H    Isotropic =    30.3854   Anisotropy =    11.5429

     24  H    Isotropic =    30.7821   Anisotropy =     5.5050

     25  C    Isotropic =   139.8842   Anisotropy =    51.2583

     26  H    Isotropic =    27.8894   Anisotropy =     6.4271

     27  H    Isotropic =    29.1062   Anisotropy =     8.2658

     28  C    Isotropic =    46.4154   Anisotropy =   162.5723

     29  C    Isotropic =    49.0839   Anisotropy =   182.6792

     30  H    Isotropic =    24.1378   Anisotropy =    12.3831

     31  C    Isotropic =    51.1737   Anisotropy =   185.9257

     32  H    Isotropic =    24.0465   Anisotropy =     5.9989

     33  C    Isotropic =    46.5944   Anisotropy =   193.1232

     34  H    Isotropic =    24.0203   Anisotropy =     3.9229

     35  C    Isotropic =    42.3274   Anisotropy =   170.9856

     36  H    Isotropic =    24.4158   Anisotropy =    10.8115

     37  C    Isotropic =    27.4454   Anisotropy =   193.2938

     38  C    Isotropic =    47.7905   Anisotropy =   176.6753

     39  H    Isotropic =    24.4812   Anisotropy =     7.0414

     40  C    Isotropic =    35.7622   Anisotropy =   190.5330

     41  C    Isotropic =    49.1121   Anisotropy =   192.0346

     42  H    Isotropic =    24.3016   Anisotropy =     4.2404

     43  C    Isotropic =    49.2714   Anisotropy =   194.5226

     44  H    Isotropic =    24.3752   Anisotropy =     3.5696

     45  C    Isotropic =    51.5308   Anisotropy =   188.6864

     46  H    Isotropic =    24.8487   Anisotropy =     6.9507

     47  C    Isotropic =    47.7184   Anisotropy =   186.1447

     48  H    Isotropic =    25.8599   Anisotropy =     7.5305

     49  C    Isotropic =    38.7931   Anisotropy =   181.0521

     50  C    Isotropic =    47.6373   Anisotropy =   189.7158

     51  H    Isotropic =    24.3417   Anisotropy =    11.7865

     52  C    Isotropic =    47.4946   Anisotropy =   190.6478

     53  H    Isotropic =    24.1081   Anisotropy =     6.2126

     54  C    Isotropic =    45.4335   Anisotropy =   197.2431

     55  H    Isotropic =    23.9661   Anisotropy =     3.6253

     56  C    Isotropic =    49.6952   Anisotropy =   186.9259

     57  H    Isotropic =    24.0639   Anisotropy =     6.4395

     58  Rh   Isotropic =  -341.7091   Anisotropy =   392.3615

     59  C    Isotropic =    85.6095   Anisotropy =   113.5069

     60  C    Isotropic =    82.0251   Anisotropy =   109.3182

     61  C    Isotropic =    80.5265   Anisotropy =   124.4084

     62  C    Isotropic =    71.7792   Anisotropy =   121.9937

     63  H    Isotropic =    27.4964   Anisotropy =     6.2119

     64  C    Isotropic =   154.0933   Anisotropy =    25.0607

     65  H    Isotropic =    26.4049   Anisotropy =     5.2269

     66  C    Isotropic =   146.8376   Anisotropy =    30.5908

     67  C    Isotropic =   155.3096   Anisotropy =    22.7570

     68  H    Isotropic =    28.7737   Anisotropy =    12.6497

     69  H    Isotropic =    26.5714   Anisotropy =     9.1835

     70  C    Isotropic =   147.7078   Anisotropy =    29.9486

     71  H    Isotropic =    30.0114   Anisotropy =     9.4802

     72  H    Isotropic =    29.9927   Anisotropy =    11.5845

     73  H    Isotropic =    29.1380   Anisotropy =    12.8124

     74  H    Isotropic =    29.1091   Anisotropy =     7.3514

     75  H    Isotropic =    30.2558   Anisotropy =     9.8978

     76  H    Isotropic =    30.2672   Anisotropy =     8.9945

     77  H    Isotropic =    29.4022   Anisotropy =    11.6748

     78  H    Isotropic =    29.2812   Anisotropy =     6.4204

 The electronic state is 1-A.
 Alpha  occ. eigenvalues --  -77.23860 -77.22761 -10.30220 -10.30194 -10.30135
 Alpha  occ. eigenvalues --  -10.30071 -10.29527 -10.29470 -10.29393 -10.29115
 Alpha  occ. eigenvalues --  -10.28750 -10.28368 -10.28325 -10.28292 -10.28256
 Alpha  occ. eigenvalues --  -10.28122 -10.27759 -10.27691 -10.27664 -10.27657
 Alpha  occ. eigenvalues --  -10.27459 -10.27431 -10.27374 -10.27367 -10.27285
 Alpha  occ. eigenvalues --  -10.27192 -10.27093 -10.27016 -10.26914 -10.26696
 Alpha  occ. eigenvalues --  -10.26659 -10.26613 -10.26448 -10.26427 -10.26335
 Alpha  occ. eigenvalues --   -6.69744  -6.68839  -4.86040  -4.85965  -4.85642
 Alpha  occ. eigenvalues --   -4.85133  -4.85011  -4.84747  -3.31693  -2.08557
 Alpha  occ. eigenvalues --   -2.07915  -2.05175  -0.97411  -0.96451  -0.94761
 Alpha  occ. eigenvalues --   -0.94474  -0.92508  -0.89606  -0.89119  -0.88516
 Alpha  occ. eigenvalues --   -0.88039  -0.87762  -0.85371  -0.85089  -0.84318
 Alpha  occ. eigenvalues --   -0.83879  -0.82093  -0.80330  -0.79681  -0.79328
 Alpha  occ. eigenvalues --   -0.77797  -0.75756  -0.73489  -0.72212  -0.71191
 Alpha  occ. eigenvalues --   -0.70810  -0.70575  -0.69628  -0.69516  -0.68175
 Alpha  occ. eigenvalues --   -0.66430  -0.65898  -0.64510  -0.62681  -0.62438
 Alpha  occ. eigenvalues --   -0.61490  -0.60157  -0.59488  -0.58454  -0.57214
 Alpha  occ. eigenvalues --   -0.56908  -0.56717  -0.56410  -0.56310  -0.55822
 Alpha  occ. eigenvalues --   -0.55715  -0.55548  -0.54834  -0.54503  -0.53909
 Alpha  occ. eigenvalues --   -0.53652  -0.53535  -0.52789  -0.52683  -0.52569
 Alpha  occ. eigenvalues --   -0.51998  -0.51759  -0.51495  -0.50940  -0.50737
 Alpha  occ. eigenvalues --   -0.50378  -0.49381  -0.49358  -0.48313  -0.47987
 Alpha  occ. eigenvalues --   -0.47841  -0.47393  -0.47240  -0.46685  -0.46438
 Alpha  occ. eigenvalues --   -0.46103  -0.45985  -0.45809  -0.45728  -0.45385
 Alpha  occ. eigenvalues --   -0.45187  -0.44903  -0.44100  -0.43614  -0.43421
 Alpha  occ. eigenvalues --   -0.43122  -0.43077  -0.42923  -0.42066  -0.41651
 Alpha  occ. eigenvalues --   -0.40852  -0.37998  -0.36742  -0.36623  -0.36416
 Alpha  occ. eigenvalues --   -0.36206  -0.35605  -0.34989  -0.34602  -0.34438
 Alpha  occ. eigenvalues --   -0.33764  -0.33414  -0.30999
 Alpha virt. eigenvalues --   -0.16284  -0.14904  -0.13975  -0.12632  -0.11913
 Alpha virt. eigenvalues --   -0.11422  -0.10136  -0.09379  -0.09215  -0.08186
 Alpha virt. eigenvalues --   -0.07898  -0.06817  -0.06545  -0.06262  -0.05503

 Mulliken charges:
               1
     1  P    0.475880
     2  P    0.409397
     3  C    0.043294
     4  H    0.166955
     5  C   -0.180252
     6  H    0.178348
     7  C   -0.385900
     8  H    0.158110
     9  H    0.126346
    10  H    0.151215
    11  C   -0.396898
    12  H    0.159004
    13  H    0.146905
    14  H    0.133463
    15  C   -0.230539
    16  H    0.170554
    17  C   -0.369438
    18  H    0.130258
    19  H    0.154295
    20  H    0.148729
    21  C   -0.398701
    22  H    0.148232
    23  H    0.160399
    24  H    0.133418
    25  C   -0.634849
    26  H    0.179882
    27  H    0.224319
    28  C   -0.154228
    29  C   -0.085483
    30  H    0.141446
    31  C   -0.081721
    32  H    0.129615
    33  C   -0.070422
    34  H    0.135713
    35  C   -0.139731
    36  H    0.150090
    37  C    0.009894
    38  C   -0.189606
    39  H    0.141729
    40  C   -0.038854
    41  C   -0.054323
    42  H    0.128538
    43  C   -0.110622
    44  H    0.131137
    45  C   -0.125843
    46  H    0.126691
    47  C   -0.105366
    48  H    0.164088
    49  C   -0.385390
    50  C   -0.024615
    51  H    0.152135
    52  C   -0.105157
    53  H    0.133493
    54  C   -0.087070
    55  H    0.139359
    56  C   -0.114811
    57  H    0.129533
    58  Rh  -0.634350
    59  C   -0.023924
    60  C   -0.087599
    61  C   -0.007652
    62  C   -0.018200
    63  H    0.183834
    64  C   -0.356784
    65  H    0.167465
    66  C   -0.210453
    67  C   -0.379415
    68  H    0.204013
    69  H    0.173320
    70  C   -0.243346
    71  H    0.168954
    72  H    0.167191
    73  H    0.171001
    74  H    0.133553
    75  H    0.170885
    76  H    0.169545
    77  H    0.170118
    78  H    0.139202
 Sum of Mulliken charges =   1.00000

 Dipole moment (field-independent basis, Debye):
    X=             -2.8981    Y=             -1.1557    Z=             -0.2995  Tot=              3.1344
 Quadrupole moment (field-independent basis, Debye-Ang):
   XX=           -199.2504   YY=           -200.4418   ZZ=           -209.2072
   XY=              2.2841   XZ=              1.0044   YZ=              2.6003

 Summary of Natural Population Analysis:

                                       Natural Population
                Natural  -----------------------------------------------
    Atom  No    Charge         Core      Valence    Rydberg      Total
 -----------------------------------------------------------------------
      P    1    1.10903      9.99676     3.84857    0.04563    13.89097
      P    2    1.06504      9.99674     3.88882    0.04940    13.93496
      C    3   -0.18508      1.99908     4.17025    0.01576     6.18508
      H    4    0.22242      0.00000     0.77527    0.00231     0.77758
      C    5   -0.46805      1.99941     4.45340    0.01524     6.46805
      H    6    0.22083      0.00000     0.77653    0.00264     0.77917
      C    7   -0.59353      1.99942     4.58580    0.00832     6.59353
      H    8    0.22264      0.00000     0.77581    0.00155     0.77736
      H    9    0.20962      0.00000     0.78880    0.00158     0.79038
      H   10    0.21300      0.00000     0.78521    0.00179     0.78700
      C   11   -0.59801      1.99941     4.59101    0.00759     6.59801
      H   12    0.22690      0.00000     0.77161    0.00148     0.77310
      H   13    0.20928      0.00000     0.78925    0.00147     0.79072
      H   14    0.20380      0.00000     0.79468    0.00152     0.79620
      C   15   -0.46172      1.99941     4.44794    0.01438     6.46172
      H   16    0.22253      0.00000     0.77555    0.00192     0.77747
      C   17   -0.60244      1.99941     4.59470    0.00833     6.60244
      H   18    0.20324      0.00000     0.79509    0.00167     0.79676
      H   19    0.22634      0.00000     0.77217    0.00150     0.77366
      H   20    0.21057      0.00000     0.78798    0.00145     0.78943
      C   21   -0.59085      1.99941     4.58394    0.00751     6.59085
      H   22    0.22007      0.00000     0.77837    0.00156     0.77993
      H   23    0.22339      0.00000     0.77510    0.00152     0.77661
      H   24    0.20096      0.00000     0.79737    0.00166     0.79904
      C   25   -0.99938      1.99942     4.98208    0.01788     6.99938
      H   26    0.25582      0.00000     0.74165    0.00252     0.74418
      H   27    0.25697      0.00000     0.74097    0.00206     0.74303
      C   28   -0.31039      1.99891     4.28903    0.02245     6.31039
      C   29   -0.20086      1.99911     4.18604    0.01571     6.20086
      H   30    0.20510      0.00000     0.79246    0.00245     0.79490
      C   31   -0.19577      1.99918     4.18151    0.01508     6.19577
      H   32    0.22217      0.00000     0.77663    0.00120     0.77783
      C   33   -0.17328      1.99919     4.15946    0.01464     6.17328
      H   34    0.22439      0.00000     0.77445    0.00116     0.77561
      C   35   -0.17826      1.99912     4.16530    0.01385     6.17826
      H   36    0.22349      0.00000     0.77499    0.00152     0.77651
      C   37   -0.02583      1.99899     4.00555    0.02129     6.02583
      C   38   -0.20015      1.99912     4.18647    0.01456     6.20015
      H   39    0.21521      0.00000     0.78313    0.00166     0.78479
      C   40   -0.06760      1.99904     4.04890    0.01965     6.06760
      C   41   -0.19608      1.99920     4.18172    0.01517     6.19608
      H   42    0.21888      0.00000     0.77989    0.00123     0.78112
      C   43   -0.19801      1.99920     4.18385    0.01496     6.19801
      H   44    0.21925      0.00000     0.77959    0.00116     0.78075
      C   45   -0.20245      1.99921     4.18779    0.01545     6.20245
      H   46    0.21842      0.00000     0.78021    0.00137     0.78158
      C   47   -0.19872      1.99909     4.18428    0.01535     6.19872
      H   48    0.22048      0.00000     0.77688    0.00264     0.77952
      C   49   -0.33485      1.99898     4.31065    0.02522     6.33485
      C   50   -0.20128      1.99908     4.18612    0.01609     6.20128
      H   51    0.21861      0.00000     0.77935    0.00204     0.78139
      C   52   -0.19201      1.99920     4.17818    0.01464     6.19201
      H   53    0.22372      0.00000     0.77504    0.00124     0.77628
      C   54   -0.17914      1.99920     4.16524    0.01469     6.17914
      H   55    0.22333      0.00000     0.77548    0.00118     0.77667
      C   56   -0.19983      1.99919     4.18597    0.01467     6.19983
      H   57    0.22056      0.00000     0.77820    0.00124     0.77944
     Rh   58   -0.36051     35.98530     9.34761    0.02760    45.36051
      C   59   -0.17573      1.99908     4.15739    0.01927     6.17573
      C   60   -0.15622      1.99909     4.13733    0.01981     6.15622
      C   61   -0.18835      1.99909     4.16927    0.02000     6.18835
      C   62   -0.15602      1.99909     4.13699    0.01994     6.15602
      H   63    0.21953      0.00000     0.77841    0.00206     0.78047
      C   64   -0.42309      1.99936     4.41180    0.01193     6.42309
      H   65    0.22048      0.00000     0.77729    0.00223     0.77952
      C   66   -0.41655      1.99935     4.40452    0.01268     6.41655
      C   67   -0.42367      1.99936     4.41195    0.01236     6.42367
      H   68    0.23994      0.00000     0.75774    0.00233     0.76006
      H   69    0.23460      0.00000     0.76300    0.00240     0.76540
      C   70   -0.41844      1.99935     4.40619    0.01290     6.41844
      H   71    0.21598      0.00000     0.78203    0.00199     0.78402
      H   72    0.22742      0.00000     0.77107    0.00151     0.77258
      H   73    0.23366      0.00000     0.76444    0.00191     0.76634
      H   74    0.21373      0.00000     0.78458    0.00169     0.78627
      H   75    0.22817      0.00000     0.77032    0.00151     0.77183
      H   76    0.21443      0.00000     0.78360    0.00197     0.78557
      H   77    0.23328      0.00000     0.76488    0.00185     0.76672
      H   78    0.21488      0.00000     0.78342    0.00170     0.78512
 =======================================================================
   * Total *    1.00000    121.95253   191.34406    0.70342   314.00000

 Normal termination of Gaussian 16 at Mon Jan  1 15:37:44 2001.
