 Gaussian 16, Revision B.01,
 Gaussian 16:  ES64L-G16RevB.01 20-Dec-2017

 ------------------------------------------
 # nmr=giao b3lyp/genecp pop=nbo scfcyc=200
 ------------------------------------------

 -------------
 Ligand 46 SPE
 -------------
 Symbolic Z-matrix:
 Charge =  1 Multiplicity = 1

                         Standard orientation:
 ---------------------------------------------------------------------
 Center     Atomic      Atomic             Coordinates (Angstroms)
 Number     Number       Type             X           Y           Z
 ---------------------------------------------------------------------
      1         15           0       -0.299270   -0.049171    1.066110
      2         15           0        2.372210    0.445759    0.343340
      3          6           0       -1.026601   -1.244780    2.268300
      4          6           0       -1.826650   -0.812840    3.329720
      5          1           0       -2.091200    0.232770    3.424160
      6          6           0       -2.295951   -1.728970    4.263970
      7          1           0       -2.919171   -1.388970    5.081510
      8          6           0       -1.968561   -3.077240    4.150080
      9          1           0       -2.337911   -3.787400    4.879110
     10          6           0       -1.169931   -3.511540    3.097360
     11          1           0       -0.915262   -4.559980    3.004700
     12          6           0       -0.701501   -2.599270    2.156980
     13          1           0       -0.082551   -2.939921    1.335320
     14          6           0        1.312430    0.466629    1.882740
     15          1           0        1.321360    1.387259    2.463660
     16          1           0        1.600690   -0.353021    2.540260
     17          6           0        4.015140   -0.263132    0.783430
     18          6           0        4.092399   -1.394872    1.602730
     19          1           0        3.198489   -1.827472    2.035340
     20          6           0        5.321389   -1.985082    1.871260
     21          1           0        5.370009   -2.852892    2.516940
     22          6           0        6.484599   -1.464243    1.311740
     23          1           0        7.441279   -1.925503    1.521420
     24          6           0        6.413260   -0.351743    0.481070
     25          1           0        7.314060    0.056667    0.040500
     26          6           0        5.185960    0.247218    0.214590
     27          1           0        5.148670    1.118068   -0.426620
     28          6           0        2.675600    2.212059   -0.067920
     29          6           0        3.343901    3.050608    0.832820
     30          1           0        3.723621    2.659248    1.769210
     31          6           0        3.538721    4.390718    0.524580
     32          1           0        4.059481    5.033028    1.223670
     33          6           0        3.069261    4.906078   -0.682170
     34          1           0        3.224922    5.950738   -0.920520
     35          6           0        2.402911    4.079449   -1.578750
     36          1           0        2.035061    4.478089   -2.515770
     37          6           0        2.204711    2.735699   -1.273090
     38          1           0        1.674940    2.094849   -1.966320
     39         45           0        0.801260   -0.742261   -0.942710
     40          6           0        1.913539   -0.934021   -2.912460
     41          6           0        2.247299   -1.995031   -2.090990
     42          6           0       -0.630821   -2.341620   -1.755970
     43          6           0       -0.939051   -1.127690   -2.328540
     44          1           0        2.596910   -0.091621   -2.918530
     45          6           0        0.940999   -0.991401   -4.076030
     46          1           0        3.174639   -1.915662   -1.533110
     47          6           0        1.673559   -3.390001   -2.139250
     48          6           0        0.156869   -3.455201   -2.420220
     49          1           0       -1.204121   -2.631630   -0.882400
     50          1           0       -1.742970   -0.555810   -1.876770
     51          6           0       -0.508780   -0.631280   -3.686380
     52          1           0        0.977629   -1.978561   -4.536660
     53          1           0        1.275530   -0.291831   -4.843810
     54          1           0        2.215649   -3.983031   -2.886770
     55          1           0        1.880769   -3.865211   -1.177880
     56          1           0       -0.221012   -4.412891   -2.058120
     57          1           0       -0.031701   -3.446581   -3.493510
     58          1           0       -1.203251   -1.004360   -4.449560
     59          1           0       -0.621840    0.454990   -3.690490
     60          6           0       -1.414970    1.416800    1.019730
     61          6           0       -2.773720    1.278620    0.544970
     62          6           0       -0.929329    2.661200    1.336820
     63          6           0       -3.359940    0.058830    0.201220
     64          6           0       -3.576259    2.474390    0.425450
     65          6           0       -1.728469    3.826740    1.221890
     66          1           0        0.088991    2.788509    1.674390
     67          6           0       -4.679240   -0.037129   -0.254400
     68          1           0       -2.801320   -0.861980    0.308240
     69          6           0       -4.892230    2.379461   -0.030300
     70          6           0       -3.012549    3.734240    0.777250
     71          1           0       -1.303769    4.785520    1.489550
     72          6           0       -5.273761   -1.286219   -0.599050
     73          6           0       -5.469010    1.158141   -0.378900
     74          1           0       -5.482439    3.285381   -0.113070
     75          1           0       -3.628289    4.620870    0.683240
     76          6           0       -6.563951   -1.347019   -1.041220
     77          1           0       -4.684621   -2.190489   -0.499630
     78          6           0       -6.812590    1.050761   -0.844480
     79          6           0       -7.343090   -0.164448   -1.166730
     80          1           0       -7.005581   -2.301759   -1.298030
     81          1           0       -7.405610    1.952972   -0.936080
     82          1           0       -8.364410   -0.236678   -1.518520
 ---------------------------------------------------------------------

 SCF Done:  E(RB3LYP) =  -2378.98017568     A.U. after   18 cycles

      1  P    Isotropic =   324.2712   Anisotropy =   116.1587

      2  P    Isotropic =   313.1841   Anisotropy =   103.1025

      3  C    Isotropic =    41.3450   Anisotropy =   179.4938

      4  C    Isotropic =    47.2684   Anisotropy =   190.5231

      5  H    Isotropic =    24.8591   Anisotropy =    12.8475

      6  C    Isotropic =    48.0259   Anisotropy =   190.9325

      7  H    Isotropic =    24.4904   Anisotropy =     7.0871

      8  C    Isotropic =    45.4814   Anisotropy =   197.0662

      9  H    Isotropic =    24.0154   Anisotropy =     3.2803

     10  C    Isotropic =    48.7396   Anisotropy =   188.2014

     11  H    Isotropic =    23.8184   Anisotropy =     6.7626

     12  C    Isotropic =    47.0191   Anisotropy =   176.5027

     13  H    Isotropic =    23.0395   Anisotropy =     9.7659

     14  C    Isotropic =   127.9024   Anisotropy =    52.3817

     15  H    Isotropic =    27.6770   Anisotropy =     7.4723

     16  H    Isotropic =    27.8392   Anisotropy =     3.4363

     17  C    Isotropic =    44.0886   Anisotropy =   169.8649

     18  C    Isotropic =    49.6458   Anisotropy =   187.7075

     19  H    Isotropic =    23.8959   Anisotropy =    10.7825

     20  C    Isotropic =    48.8391   Anisotropy =   189.5647

     21  H    Isotropic =    23.9775   Anisotropy =     6.9136

     22  C    Isotropic =    46.4408   Anisotropy =   195.7504

     23  H    Isotropic =    24.0691   Anisotropy =     3.7496

     24  C    Isotropic =    48.6483   Anisotropy =   190.0579

     25  H    Isotropic =    24.3108   Anisotropy =     6.4950

     26  C    Isotropic =    47.1801   Anisotropy =   190.8365

     27  H    Isotropic =    24.9380   Anisotropy =    12.7856

     28  C    Isotropic =    46.1772   Anisotropy =   173.2950

     29  C    Isotropic =    46.2530   Anisotropy =   188.9397

     30  H    Isotropic =    24.1725   Anisotropy =    11.8162

     31  C    Isotropic =    47.5915   Anisotropy =   191.6188

     32  H    Isotropic =    23.9382   Anisotropy =     5.8080

     33  C    Isotropic =    44.5005   Anisotropy =   199.4083

     34  H    Isotropic =    23.8652   Anisotropy =     3.3305

     35  C    Isotropic =    49.2889   Anisotropy =   189.4482

     36  H    Isotropic =    24.1871   Anisotropy =     6.7533

     37  C    Isotropic =    40.7471   Anisotropy =   183.2728

     38  H    Isotropic =    23.5289   Anisotropy =     9.3764

     39  Rh   Isotropic =  -325.0291   Anisotropy =   368.4455

     40  C    Isotropic =    84.1536   Anisotropy =   114.7042

     41  C    Isotropic =    74.1063   Anisotropy =   120.6534

     42  C    Isotropic =    77.1102   Anisotropy =   124.7669

     43  C    Isotropic =    71.5162   Anisotropy =   126.2097

     44  H    Isotropic =    27.2445   Anisotropy =     6.4703

     45  C    Isotropic =   154.1747   Anisotropy =    24.7266

     46  H    Isotropic =    27.0910   Anisotropy =     4.7131

     47  C    Isotropic =   147.3919   Anisotropy =    29.7795

     48  C    Isotropic =   153.7383   Anisotropy =    25.1406

     49  H    Isotropic =    26.2811   Anisotropy =     5.3399

     50  H    Isotropic =    26.3184   Anisotropy =     9.0960

     51  C    Isotropic =   148.1279   Anisotropy =    29.8248

     52  H    Isotropic =    29.9305   Anisotropy =     9.7445

     53  H    Isotropic =    30.0047   Anisotropy =    11.8255

     54  H    Isotropic =    29.1824   Anisotropy =    12.5608

     55  H    Isotropic =    28.9276   Anisotropy =     7.2411

     56  H    Isotropic =    29.6336   Anisotropy =    11.2121

     57  H    Isotropic =    29.7560   Anisotropy =     9.4814

     58  H    Isotropic =    29.5078   Anisotropy =    11.7880

     59  H    Isotropic =    29.5734   Anisotropy =     6.2875

     60  C    Isotropic =    54.2414   Anisotropy =   146.9126

     61  C    Isotropic =    48.5748   Anisotropy =   201.4520

     62  C    Isotropic =    47.8384   Anisotropy =   186.1668

     63  C    Isotropic =    55.5333   Anisotropy =   147.0018

     64  C    Isotropic =    47.0784   Anisotropy =   208.9059

     65  C    Isotropic =    56.6721   Anisotropy =   173.9679

     66  H    Isotropic =    24.7864   Anisotropy =     9.1760

     67  C    Isotropic =    46.1633   Anisotropy =   213.3030

     68  H    Isotropic =    24.3398   Anisotropy =    12.4795

     69  C    Isotropic =    48.9846   Anisotropy =   146.4952

     70  C    Isotropic =    43.6746   Anisotropy =   169.2688

     71  H    Isotropic =    24.5893   Anisotropy =     7.1865

     72  C    Isotropic =    52.4336   Anisotropy =   157.5353

     73  C    Isotropic =    46.2726   Anisotropy =   214.3100

     74  H    Isotropic =    23.0852   Anisotropy =     9.1981

     75  H    Isotropic =    23.4781   Anisotropy =     6.9997

     76  C    Isotropic =    50.0864   Anisotropy =   185.1681

     77  H    Isotropic =    24.2820   Anisotropy =    11.4106

     78  C    Isotropic =    50.1549   Anisotropy =   163.7131

     79  C    Isotropic =    50.9296   Anisotropy =   184.7125

     80  H    Isotropic =    24.1221   Anisotropy =     7.5385

     81  H    Isotropic =    23.5633   Anisotropy =     7.8823

     82  H    Isotropic =    24.0081   Anisotropy =     4.9216

 The electronic state is 1-A.
 Alpha  occ. eigenvalues --  -77.23733 -77.23614 -10.30135 -10.29600 -10.29594
 Alpha  occ. eigenvalues --  -10.29476 -10.29197 -10.28920 -10.28788 -10.28723
 Alpha  occ. eigenvalues --  -10.28722 -10.28546 -10.28488 -10.28415 -10.28357
 Alpha  occ. eigenvalues --  -10.28185 -10.28087 -10.28080 -10.27854 -10.27825
 Alpha  occ. eigenvalues --  -10.27802 -10.27728 -10.27647 -10.27509 -10.27468
 Alpha  occ. eigenvalues --  -10.27393 -10.27381 -10.27366 -10.27333 -10.27276
 Alpha  occ. eigenvalues --  -10.27262 -10.27199 -10.27195 -10.27181 -10.27179
 Alpha  occ. eigenvalues --  -10.27074 -10.26841 -10.26771 -10.26655 -10.25901
 Alpha  occ. eigenvalues --  -10.25779 -10.25738 -10.25571  -6.69723  -6.69558
 Alpha  occ. eigenvalues --   -4.86002  -4.85949  -4.85856  -4.85779  -4.85622
 Alpha  occ. eigenvalues --   -4.85452  -3.31443  -2.08328  -2.07669  -2.04912
 Alpha  occ. eigenvalues --   -0.97892  -0.96845  -0.96152  -0.96113  -0.94592
 Alpha  occ. eigenvalues --   -0.94253  -0.90065  -0.89324  -0.88953  -0.88119
 Alpha  occ. eigenvalues --   -0.87842  -0.86425  -0.85416  -0.85286  -0.84966
 Alpha  occ. eigenvalues --   -0.84910  -0.84542  -0.83704  -0.83201  -0.80154
 Alpha  occ. eigenvalues --   -0.79754  -0.77623  -0.75670  -0.74060  -0.72740
 Alpha  occ. eigenvalues --   -0.71320  -0.71175  -0.70888  -0.70846  -0.70409
 Alpha  occ. eigenvalues --   -0.70265  -0.69510  -0.68490  -0.66925  -0.65893
 Alpha  occ. eigenvalues --   -0.65637  -0.63192  -0.62534  -0.62408  -0.61733
 Alpha  occ. eigenvalues --   -0.61465  -0.60693  -0.59850  -0.59589  -0.57045
 Alpha  occ. eigenvalues --   -0.56739  -0.56213  -0.56103  -0.55979  -0.55814
 Alpha  occ. eigenvalues --   -0.55701  -0.55465  -0.55205  -0.55092  -0.54590
 Alpha  occ. eigenvalues --   -0.54304  -0.53643  -0.53462  -0.53017  -0.52815
 Alpha  occ. eigenvalues --   -0.52561  -0.52510  -0.52397  -0.52349  -0.51239
 Alpha  occ. eigenvalues --   -0.50644  -0.50321  -0.50101  -0.49375  -0.48717
 Alpha  occ. eigenvalues --   -0.48538  -0.48127  -0.47871  -0.47733  -0.47364
 Alpha  occ. eigenvalues --   -0.47220  -0.47080  -0.46128  -0.45809  -0.45779
 Alpha  occ. eigenvalues --   -0.45755  -0.45220  -0.45015  -0.44767  -0.44071
 Alpha  occ. eigenvalues --   -0.43536  -0.43300  -0.43146  -0.43060  -0.42872
 Alpha  occ. eigenvalues --   -0.42584  -0.41716  -0.41193  -0.39844  -0.39479
 Alpha  occ. eigenvalues --   -0.37852  -0.37096  -0.36526  -0.36313  -0.35820
 Alpha  occ. eigenvalues --   -0.35750  -0.35625  -0.35445  -0.35072  -0.34555
 Alpha  occ. eigenvalues --   -0.34106  -0.33603  -0.33433  -0.30716  -0.29035
 Alpha virt. eigenvalues --   -0.16738  -0.15881  -0.14521  -0.13640  -0.13155
 Alpha virt. eigenvalues --   -0.12125  -0.11721  -0.11322  -0.11011  -0.10773
 Alpha virt. eigenvalues --   -0.09636  -0.08996  -0.07451  -0.06769  -0.06412

 Mulliken charges:
               1
     1  P    0.304221
     2  P    0.400886
     3  C   -0.319415
     4  C   -0.017241
     5  H    0.155641
     6  C   -0.093346
     7  H    0.135467
     8  C   -0.088865
     9  H    0.139039
    10  C   -0.108929
    11  H    0.129038
    12  C   -0.044026
    13  H    0.174006
    14  C   -0.583311
    15  H    0.211190
    16  H    0.228093
    17  C   -0.188148
    18  C   -0.072810
    19  H    0.136657
    20  C   -0.103359
    21  H    0.131942
    22  C   -0.095417
    23  H    0.140247
    24  C   -0.100334
    25  H    0.135930
    26  C   -0.063202
    27  H    0.159125
    28  C   -0.300801
    29  C   -0.086430
    30  H    0.150937
    31  C   -0.090938
    32  H    0.137339
    33  C   -0.088036
    34  H    0.140851
    35  C   -0.125631
    36  H    0.131234
    37  C    0.005509
    38  H    0.160269
    39  Rh  -0.558061
    40  C   -0.040629
    41  C   -0.090372
    42  C   -0.058096
    43  C   -0.090448
    44  H    0.190552
    45  C   -0.355801
    46  H    0.213600
    47  C   -0.225597
    48  C   -0.351737
    49  H    0.187377
    50  H    0.229441
    51  C   -0.223214
    52  H    0.167438
    53  H    0.167483
    54  H    0.170726
    55  H    0.128932
    56  H    0.167297
    57  H    0.168187
    58  H    0.172608
    59  H    0.133728
    60  C   -0.221628
    61  C    0.147988
    62  C    0.032938
    63  C   -0.054590
    64  C   -0.011956
    65  C   -0.097739
    66  H    0.123599
    67  C    0.041742
    68  H    0.174991
    69  C   -0.195400
    70  C   -0.170747
    71  H    0.118784
    72  C   -0.190426
    73  C    0.049709
    74  H    0.121097
    75  H    0.123827
    76  C   -0.067215
    77  H    0.101893
    78  C   -0.160858
    79  C   -0.074450
    80  H    0.122429
    81  H    0.118993
    82  H    0.126225
 Sum of Mulliken charges =   1.00000

 Dipole moment (field-independent basis, Debye):
    X=              2.5480    Y=             -0.1120    Z=              0.1118  Tot=              2.5529
 Quadrupole moment (field-independent basis, Debye-Ang):
   XX=           -206.9149   YY=           -227.6796   ZZ=           -251.8837
   XY=              1.8149   XZ=              3.5832   YZ=             -2.5827

 Summary of Natural Population Analysis:

                                       Natural Population
                Natural  -----------------------------------------------
    Atom  No    Charge         Core      Valence    Rydberg      Total
 -----------------------------------------------------------------------
      P    1    1.09436      9.99662     3.85852    0.05051    13.90564
      P    2    1.13003      9.99646     3.82268    0.05083    13.86997
      C    3   -0.34220      1.99899     4.31869    0.02452     6.34220
      C    4   -0.18822      1.99909     4.17302    0.01612     6.18822
      H    5    0.22351      0.00000     0.77467    0.00182     0.77649
      C    6   -0.18735      1.99920     4.17367    0.01449     6.18735
      H    7    0.22337      0.00000     0.77541    0.00122     0.77663
      C    8   -0.17843      1.99921     4.16461    0.01461     6.17843
      H    9    0.22267      0.00000     0.77615    0.00118     0.77733
      C   10   -0.19616      1.99920     4.18226    0.01470     6.19616
      H   11    0.22017      0.00000     0.77860    0.00123     0.77983
      C   12   -0.20149      1.99909     4.18695    0.01545     6.20149
      H   13    0.21816      0.00000     0.77993    0.00191     0.78184
      C   14   -0.96885      1.99941     4.95136    0.01807     6.96885
      H   15    0.25465      0.00000     0.74328    0.00207     0.74535
      H   16    0.26627      0.00000     0.73227    0.00146     0.73373
      C   17   -0.34250      1.99900     4.32001    0.02350     6.34250
      C   18   -0.19714      1.99909     4.18276    0.01528     6.19714
      H   19    0.20831      0.00000     0.78952    0.00216     0.79169
      C   20   -0.19045      1.99920     4.17651    0.01474     6.19045
      H   21    0.22188      0.00000     0.77690    0.00122     0.77812
      C   22   -0.18054      1.99920     4.16663    0.01471     6.18054
      H   23    0.22340      0.00000     0.77544    0.00117     0.77660
      C   24   -0.18876      1.99920     4.17484    0.01472     6.18876
      H   25    0.22323      0.00000     0.77556    0.00121     0.77677
      C   26   -0.19570      1.99910     4.18139    0.01521     6.19570
      H   27    0.22279      0.00000     0.77550    0.00171     0.77721
      C   28   -0.35017      1.99900     4.32694    0.02423     6.35017
      C   29   -0.19439      1.99909     4.17937    0.01594     6.19439
      H   30    0.21840      0.00000     0.77960    0.00200     0.78160
      C   31   -0.19388      1.99920     4.18000    0.01468     6.19388
      H   32    0.22387      0.00000     0.77489    0.00123     0.77613
      C   33   -0.17497      1.99921     4.16120    0.01456     6.17497
      H   34    0.22330      0.00000     0.77553    0.00117     0.77670
      C   35   -0.19539      1.99920     4.18162    0.01458     6.19539
      H   36    0.22217      0.00000     0.77661    0.00122     0.77783
      C   37   -0.17843      1.99909     4.16389    0.01544     6.17843
      H   38    0.22253      0.00000     0.77548    0.00198     0.77747
     Rh   39   -0.38465     35.98572     9.37010    0.02883    45.38465
      C   40   -0.18699      1.99907     4.16845    0.01947     6.18699
      C   41   -0.14960      1.99908     4.13103    0.01950     6.14960
      C   42   -0.17591      1.99906     4.15733    0.01952     6.17591
      C   43   -0.15975      1.99908     4.14093    0.01975     6.15975
      H   44    0.22436      0.00000     0.77366    0.00198     0.77564
      C   45   -0.42247      1.99936     4.41138    0.01173     6.42247
      H   46    0.23111      0.00000     0.76692    0.00197     0.76889
      C   47   -0.41744      1.99935     4.40548    0.01260     6.41744
      C   48   -0.42452      1.99936     4.41325    0.01191     6.42452
      H   49    0.22367      0.00000     0.77418    0.00214     0.77633
      H   50    0.23727      0.00000     0.76062    0.00211     0.76273
      C   51   -0.41908      1.99935     4.40718    0.01254     6.41908
      H   52    0.21442      0.00000     0.78360    0.00198     0.78558
      H   53    0.22753      0.00000     0.77098    0.00149     0.77247
      H   54    0.23363      0.00000     0.76448    0.00189     0.76637
      H   55    0.21522      0.00000     0.78322    0.00156     0.78478
      H   56    0.22707      0.00000     0.77143    0.00150     0.77293
      H   57    0.21537      0.00000     0.78265    0.00198     0.78463
      H   58    0.23467      0.00000     0.76344    0.00189     0.76533
      H   59    0.21690      0.00000     0.78153    0.00157     0.78310
      C   60   -0.31388      1.99894     4.29167    0.02327     6.31388
      C   61   -0.05767      1.99903     4.03910    0.01954     6.05767
      C   62   -0.17824      1.99910     4.16385    0.01529     6.17824
      C   63   -0.17710      1.99908     4.16418    0.01385     6.17710
      C   64   -0.06359      1.99909     4.04834    0.01615     6.06359
      C   65   -0.21493      1.99918     4.19990    0.01586     6.21493
      H   66    0.20804      0.00000     0.78948    0.00248     0.79196
      C   67   -0.04578      1.99910     4.02989    0.01679     6.04578
      H   68    0.20716      0.00000     0.79013    0.00271     0.79284
      C   69   -0.12868      1.99910     4.11637    0.01321     6.12868
      C   70   -0.13811      1.99914     4.12471    0.01427     6.13811
      H   71    0.22168      0.00000     0.77714    0.00118     0.77832
      C   72   -0.18273      1.99914     4.16916    0.01444     6.18273
      C   73   -0.05618      1.99910     4.04117    0.01591     6.05618
      H   74    0.21163      0.00000     0.78613    0.00224     0.78837
      H   75    0.21799      0.00000     0.78054    0.00148     0.78201
      C   76   -0.18606      1.99920     4.17200    0.01487     6.18606
      H   77    0.20706      0.00000     0.79123    0.00171     0.79294
      C   78   -0.16944      1.99914     4.15597    0.01433     6.16944
      C   79   -0.19306      1.99920     4.17881    0.01505     6.19306
      H   80    0.21792      0.00000     0.78090    0.00118     0.78208
      H   81    0.21520      0.00000     0.78326    0.00153     0.78480
      H   82    0.21995      0.00000     0.77892    0.00114     0.78005
 =======================================================================
   * Total *    1.00000    137.94378   219.19696    0.85926   358.00000

 Normal termination of Gaussian 16 at Wed Nov  6 00:21:03 2024.
