 Gaussian 16, Revision B.01,
 Gaussian 16:  ES64L-G16RevB.01 20-Dec-2017

 ------------------------------------------
 # nmr=giao b3lyp/genecp pop=nbo scfcyc=200
 ------------------------------------------

 ---------
 MB-18_SPE
 ---------
 Symbolic Z-matrix:
 Charge =  1 Multiplicity = 1

                         Standard orientation:
 ---------------------------------------------------------------------
 Center     Atomic      Atomic             Coordinates (Angstroms)
 Number     Number       Type             X           Y           Z
 ---------------------------------------------------------------------
      1         15           0       -1.451089   -0.760821   -0.046019
      2         15           0       -0.250882    1.829110   -0.021999
      3          6           0       -1.956101    1.046619   -0.050939
      4          1           0       -2.511701    1.322798   -0.945129
      5          1           0       -2.567261    1.312528    0.807781
      6          6           0       -2.142539   -1.436642    1.622691
      7          6           0       -3.673399   -1.356903    1.715961
      8          1           0       -3.972929   -1.556623    2.748381
      9          1           0       -4.162888   -2.102183    1.091631
     10          1           0       -4.066730   -0.374083    1.450541
     11          6           0       -1.522089   -0.570001    2.735401
     12          1           0       -1.794689   -0.996581    3.703941
     13          1           0       -1.890570    0.456019    2.724451
     14          1           0       -0.432359   -0.548910    2.671031
     15          6           0       -1.688947   -2.887821    1.850041
     16          1           0       -0.603697   -2.969810    1.893091
     17          1           0       -2.059977   -3.575161    1.092551
     18          1           0       -2.078057   -3.227411    2.813401
     19          6           0       -2.306489   -1.513582   -1.597529
     20          6           0       -1.621319   -0.866441   -2.816759
     21          1           0       -2.012689   -1.327851   -3.726739
     22          1           0       -0.539849   -1.001690   -2.809079
     23          1           0       -1.830650    0.202029   -2.887139
     24          6           0       -2.080997   -3.034061   -1.643569
     25          1           0       -2.668477   -3.558882   -0.891609
     26          1           0       -1.033557   -3.310371   -1.513549
     27          1           0       -2.398787   -3.410582   -2.619119
     28          6           0       -3.812869   -1.217673   -1.675659
     29          1           0       -4.183789   -1.553153   -2.648039
     30          1           0       -4.038980   -0.153113   -1.598499
     31          1           0       -4.384278   -1.742724   -0.914399
     32          6           0       -0.245913    3.245700    1.253431
     33          1           0        0.173736    4.079471    0.684611
     34          6           0       -1.642823    3.658869    1.729931
     35          1           0       -2.089363    2.902579    2.378641
     36          1           0       -2.331723    3.856288    0.908931
     37          1           0       -1.563044    4.575439    2.318821
     38          6           0        0.686607    2.975611    2.437641
     39          1           0        0.653887    3.821201    3.128431
     40          1           0        1.722588    2.857732    2.120541
     41          1           0        0.393488    2.083461    2.994001
     42          6           0       -0.165182    2.727770   -1.685479
     43          1           0       -0.344412    1.926320   -2.406719
     44          6           0       -1.247963    3.799089   -1.862449
     45          1           0       -1.083884    4.654769   -1.205449
     46          1           0       -2.256023    3.422718   -1.682979
     47          1           0       -1.220754    4.172109   -2.888849
     48          6           0        1.229037    3.302501   -1.957909
     49          1           0        1.232207    3.806711   -2.926569
     50          1           0        1.990818    2.525392   -1.990289
     51          1           0        1.523326    4.044202   -1.211449
     52         45           0        0.907600   -0.284889    0.014591
     53          6           0        3.085860    0.412273   -0.194639
     54          6           0        2.810130    0.141463    1.129041
     55          6           0        1.771952   -2.395888    0.188671
     56          6           0        1.770232   -1.996698   -1.133769
     57          6           0        3.849910   -0.494026   -1.139409
     58          1           0        3.006159    1.446833   -0.502789
     59          1           0        2.544389    0.982593    1.757811
     60          6           0        3.166911   -1.107807    1.894511
     61          6           0        2.983012   -2.416597    1.100671
     62          1           0        0.939553   -3.009649    0.508121
     63          6           0        2.938841   -1.461007   -1.922759
     64          1           0        0.948552   -2.345999   -1.748959
     65          1           0        4.395160    0.124464   -1.854119
     66          1           0        4.607751   -1.048446   -0.586059
     67          1           0        4.199491   -1.030546    2.257611
     68          1           0        2.540291   -1.140717    2.788491
     69          1           0        3.878012   -2.639536    0.519761
     70          1           0        2.873923   -3.239877    1.808421
     71          1           0        2.540361   -0.945327   -2.799369
     72          1           0        3.529802   -2.299257   -2.313089
 ---------------------------------------------------------------------

 SCF Done:  E(RB3LYP) =  -1697.67760966     A.U. after   15 cycles

      1  P    Isotropic =   280.4353   Anisotropy =   132.9727

      2  P    Isotropic =   310.3815   Anisotropy =    99.6113

      3  C    Isotropic =   148.4030   Anisotropy =    46.9819

      4  H    Isotropic =    29.3043   Anisotropy =     5.3440

      5  H    Isotropic =    28.9140   Anisotropy =     5.1888

      6  C    Isotropic =   132.1374   Anisotropy =    36.4394

      7  C    Isotropic =   156.8687   Anisotropy =    35.4794

      8  H    Isotropic =    30.7503   Anisotropy =    10.7061

      9  H    Isotropic =    30.5134   Anisotropy =     8.4604

     10  H    Isotropic =    30.6551   Anisotropy =     6.3570

     11  C    Isotropic =   150.4521   Anisotropy =    40.4900

     12  H    Isotropic =    30.6819   Anisotropy =     9.2987

     13  H    Isotropic =    30.6009   Anisotropy =     6.7365

     14  H    Isotropic =    29.2874   Anisotropy =     7.1761

     15  C    Isotropic =   155.1620   Anisotropy =    38.7270

     16  H    Isotropic =    30.3275   Anisotropy =     6.7225

     17  H    Isotropic =    30.3680   Anisotropy =     7.1441

     18  H    Isotropic =    30.6610   Anisotropy =    10.3034

     19  C    Isotropic =   135.8648   Anisotropy =    32.8209

     20  C    Isotropic =   152.0965   Anisotropy =    41.9413

     21  H    Isotropic =    30.9040   Anisotropy =    10.1103

     22  H    Isotropic =    30.3062   Anisotropy =     6.9006

     23  H    Isotropic =    30.7838   Anisotropy =     6.2317

     24  C    Isotropic =   155.8111   Anisotropy =    36.3546

     25  H    Isotropic =    30.5290   Anisotropy =     7.7364

     26  H    Isotropic =    30.9797   Anisotropy =     5.2057

     27  H    Isotropic =    30.7398   Anisotropy =    10.6086

     28  C    Isotropic =   157.7200   Anisotropy =    38.7193

     29  H    Isotropic =    30.8508   Anisotropy =    11.0160

     30  H    Isotropic =    30.8566   Anisotropy =     6.3934

     31  H    Isotropic =    30.5616   Anisotropy =     8.0956

     32  C    Isotropic =   153.4255   Anisotropy =    23.0187

     33  H    Isotropic =    29.8412   Anisotropy =     5.9845

     34  C    Isotropic =   162.3953   Anisotropy =    27.6552

     35  H    Isotropic =    30.9111   Anisotropy =     5.9669

     36  H    Isotropic =    30.9093   Anisotropy =     7.1713

     37  H    Isotropic =    30.4370   Anisotropy =    12.3929

     38  C    Isotropic =   160.7118   Anisotropy =    29.1980

     39  H    Isotropic =    30.5926   Anisotropy =    11.8049

     40  H    Isotropic =    30.8481   Anisotropy =     6.8764

     41  H    Isotropic =    30.8634   Anisotropy =     5.0481

     42  C    Isotropic =   143.6838   Anisotropy =    25.5351

     43  H    Isotropic =    29.4300   Anisotropy =     6.1638

     44  C    Isotropic =   167.6850   Anisotropy =    27.6561

     45  H    Isotropic =    30.9305   Anisotropy =     7.7989

     46  H    Isotropic =    30.6785   Anisotropy =     6.9348

     47  H    Isotropic =    30.5737   Anisotropy =    12.0176

     48  C    Isotropic =   165.8937   Anisotropy =    29.7345

     49  H    Isotropic =    30.4635   Anisotropy =    11.3354

     50  H    Isotropic =    30.3260   Anisotropy =     8.6685

     51  H    Isotropic =    30.9601   Anisotropy =     7.1482

     52  Rh   Isotropic =  -363.9998   Anisotropy =   416.2325

     53  C    Isotropic =    82.7871   Anisotropy =   118.7808

     54  C    Isotropic =    74.4667   Anisotropy =   121.4857

     55  C    Isotropic =    85.2400   Anisotropy =   114.4800

     56  C    Isotropic =    76.1409   Anisotropy =   116.6659

     57  C    Isotropic =   155.1524   Anisotropy =    23.4651

     58  H    Isotropic =    27.1907   Anisotropy =     5.7143

     59  H    Isotropic =    25.9669   Anisotropy =     3.9939

     60  C    Isotropic =   146.5842   Anisotropy =    29.1304

     61  C    Isotropic =   155.0354   Anisotropy =    23.2056

     62  H    Isotropic =    27.1951   Anisotropy =     5.1827

     63  C    Isotropic =   146.6434   Anisotropy =    30.0743

     64  H    Isotropic =    26.1340   Anisotropy =     3.3171

     65  H    Isotropic =    29.8967   Anisotropy =    11.2807

     66  H    Isotropic =    29.8949   Anisotropy =     9.6690

     67  H    Isotropic =    29.1122   Anisotropy =    12.6407

     68  H    Isotropic =    29.0372   Anisotropy =     6.8194

     69  H    Isotropic =    29.8869   Anisotropy =     9.7179

     70  H    Isotropic =    29.8598   Anisotropy =    11.0526

     71  H    Isotropic =    29.0414   Anisotropy =     6.8921

     72  H    Isotropic =    29.0699   Anisotropy =    12.5970

 The electronic state is 1-A.
 Alpha  occ. eigenvalues --  -77.23173 -77.23172 -10.31738 -10.31722 -10.30610
 Alpha  occ. eigenvalues --  -10.30533 -10.30403 -10.29718 -10.29522 -10.29100
 Alpha  occ. eigenvalues --  -10.29087 -10.27962 -10.27881 -10.27667 -10.27642
 Alpha  occ. eigenvalues --  -10.27484 -10.27459 -10.27415 -10.27375 -10.27300
 Alpha  occ. eigenvalues --  -10.27287 -10.27183 -10.27126 -10.27030 -10.27014
 Alpha  occ. eigenvalues --   -6.69178  -6.69156  -4.85476  -4.85452  -4.85363
 Alpha  occ. eigenvalues --   -4.85336  -4.85081  -4.85063  -3.31886  -2.08732
 Alpha  occ. eigenvalues --   -2.08065  -2.05389  -0.94937  -0.94187  -0.92510
 Alpha  occ. eigenvalues --   -0.92238  -0.89902  -0.89602  -0.88471  -0.85937
 Alpha  occ. eigenvalues --   -0.80871  -0.80408  -0.80363  -0.80108  -0.79854
 Alpha  occ. eigenvalues --   -0.79702  -0.79560  -0.78247  -0.75662  -0.72666
 Alpha  occ. eigenvalues --   -0.70991  -0.70218  -0.66713  -0.66357  -0.64621
 Alpha  occ. eigenvalues --   -0.63345  -0.62862  -0.60752  -0.59415  -0.58358
 Alpha  occ. eigenvalues --   -0.57781  -0.57699  -0.56877  -0.56573  -0.55735
 Alpha  occ. eigenvalues --   -0.55693  -0.55496  -0.54888  -0.54279  -0.54080
 Alpha  occ. eigenvalues --   -0.53348  -0.53064  -0.52978  -0.52850  -0.52570
 Alpha  occ. eigenvalues --   -0.51651  -0.51167  -0.50459  -0.49872  -0.49543
 Alpha  occ. eigenvalues --   -0.49359  -0.49161  -0.48774  -0.48515  -0.48133
 Alpha  occ. eigenvalues --   -0.47825  -0.47237  -0.46777  -0.46661  -0.46585
 Alpha  occ. eigenvalues --   -0.46372  -0.45995  -0.45944  -0.45749  -0.45198
 Alpha  occ. eigenvalues --   -0.45037  -0.44550  -0.43604  -0.43299  -0.42654
 Alpha  occ. eigenvalues --   -0.42087  -0.41730  -0.40990  -0.40558  -0.37237
 Alpha  occ. eigenvalues --   -0.36845  -0.35257  -0.34432  -0.33769  -0.31285
 Alpha virt. eigenvalues --   -0.16697  -0.14649  -0.09795  -0.09364  -0.08587
 Alpha virt. eigenvalues --   -0.08388  -0.07741  -0.07286  -0.06640  -0.06317
 Alpha virt. eigenvalues --   -0.05690  -0.04694  -0.04611  -0.04210  -0.03872

 Mulliken charges:
               1
     1  P    0.428242
     2  P    0.430470
     3  C   -0.654336
     4  H    0.197400
     5  H    0.209179
     6  C   -0.019632
     7  C   -0.379639
     8  H    0.153757
     9  H    0.142438
    10  H    0.139688
    11  C   -0.436222
    12  H    0.163220
    13  H    0.134072
    14  H    0.160727
    15  C   -0.423473
    16  H    0.135264
    17  H    0.151699
    18  H    0.157031
    19  C   -0.050954
    20  C   -0.402987
    21  H    0.162374
    22  H    0.138922
    23  H    0.132528
    24  C   -0.411785
    25  H    0.146930
    26  H    0.147689
    27  H    0.155974
    28  C   -0.361406
    29  H    0.152861
    30  H    0.133441
    31  H    0.146585
    32  C   -0.176046
    33  H    0.172498
    34  C   -0.412782
    35  H    0.132876
    36  H    0.152325
    37  H    0.159998
    38  C   -0.395954
    39  H    0.158055
    40  H    0.140957
    41  H    0.136782
    42  C   -0.222811
    43  H    0.152281
    44  C   -0.365640
    45  H    0.143432
    46  H    0.134347
    47  H    0.156465
    48  C   -0.414375
    49  H    0.158097
    50  H    0.135590
    51  H    0.141221
    52  Rh  -0.448936
    53  C   -0.056369
    54  C   -0.057916
    55  C   -0.052581
    56  C   -0.089380
    57  C   -0.367101
    58  H    0.190066
    59  H    0.174192
    60  C   -0.222032
    61  C   -0.366461
    62  H    0.191348
    63  C   -0.214045
    64  H    0.169957
    65  H    0.168342
    66  H    0.169811
    67  H    0.172773
    68  H    0.131377
    69  H    0.170524
    70  H    0.168183
    71  H    0.128217
    72  H    0.172658
 Sum of Mulliken charges =   1.00000

 Dipole moment (field-independent basis, Debye):
    X=             -1.2534    Y=              0.9523    Z=             -0.2200  Tot=              1.5894
 Quadrupole moment (field-independent basis, Debye-Ang):
   XX=           -162.4511   YY=           -161.8934   ZZ=           -173.7907
   XY=             -0.0555   XZ=             -0.1106   YZ=             -0.5193

 Summary of Natural Population Analysis:

                                       Natural Population
                Natural  -----------------------------------------------
    Atom  No    Charge         Core      Valence    Rydberg      Total
 -----------------------------------------------------------------------
      P    1    1.08916      9.99680     3.86805    0.04599    13.91084
      P    2    1.05334      9.99694     3.90481    0.04491    13.94666
      C    3   -1.02189      1.99940     5.00461    0.01787     7.02189
      H    4    0.25215      0.00000     0.74499    0.00286     0.74785
      H    5    0.25811      0.00000     0.73928    0.00261     0.74189
      C    6   -0.25567      1.99941     4.23872    0.01755     6.25567
      C    7   -0.60571      1.99935     4.59747    0.00889     6.60571
      H    8    0.22290      0.00000     0.77535    0.00175     0.77710
      H    9    0.20968      0.00000     0.78867    0.00165     0.79032
      H   10    0.20597      0.00000     0.79228    0.00175     0.79403
      C   11   -0.60030      1.99936     4.59213    0.00881     6.60030
      H   12    0.22521      0.00000     0.77294    0.00185     0.77479
      H   13    0.19973      0.00000     0.79816    0.00212     0.80027
      H   14    0.22110      0.00000     0.77716    0.00174     0.77890
      C   15   -0.60100      1.99935     4.59345    0.00820     6.60100
      H   16    0.20972      0.00000     0.78874    0.00154     0.79028
      H   17    0.21029      0.00000     0.78804    0.00167     0.78971
      H   18    0.22167      0.00000     0.77654    0.00179     0.77833
      C   19   -0.26428      1.99941     4.24785    0.01701     6.26428
      C   20   -0.59983      1.99936     4.59190    0.00857     6.59983
      H   21    0.22473      0.00000     0.77346    0.00182     0.77527
      H   22    0.21592      0.00000     0.78236    0.00172     0.78408
      H   23    0.20098      0.00000     0.79726    0.00176     0.79902
      C   24   -0.60181      1.99935     4.59425    0.00820     6.60181
      H   25    0.20937      0.00000     0.78894    0.00169     0.79063
      H   26    0.20798      0.00000     0.79050    0.00152     0.79202
      H   27    0.22280      0.00000     0.77541    0.00179     0.77720
      C   28   -0.60455      1.99935     4.59636    0.00883     6.60455
      H   29    0.22259      0.00000     0.77569    0.00172     0.77741
      H   30    0.20407      0.00000     0.79417    0.00175     0.79593
      H   31    0.21252      0.00000     0.78583    0.00165     0.78748
      C   32   -0.45800      1.99940     4.44364    0.01496     6.45800
      H   33    0.22090      0.00000     0.77640    0.00269     0.77910
      C   34   -0.59931      1.99941     4.59202    0.00788     6.59931
      H   35    0.20003      0.00000     0.79811    0.00185     0.79997
      H   36    0.21162      0.00000     0.78684    0.00154     0.78838
      H   37    0.22758      0.00000     0.77088    0.00154     0.77242
      C   38   -0.58827      1.99942     4.58150    0.00735     6.58827
      H   39    0.22229      0.00000     0.77614    0.00157     0.77771
      H   40    0.20644      0.00000     0.79215    0.00141     0.79356
      H   41    0.20666      0.00000     0.79173    0.00162     0.79334
      C   42   -0.45226      1.99942     4.43766    0.01519     6.45226
      H   43    0.22278      0.00000     0.77499    0.00223     0.77722
      C   44   -0.60302      1.99941     4.59562    0.00799     6.60302
      H   45    0.20771      0.00000     0.79076    0.00153     0.79229
      H   46    0.20387      0.00000     0.79450    0.00163     0.79613
      H   47    0.22641      0.00000     0.77209    0.00149     0.77359
      C   48   -0.59548      1.99941     4.58853    0.00754     6.59548
      H   49    0.22492      0.00000     0.77356    0.00152     0.77508
      H   50    0.21140      0.00000     0.78719    0.00142     0.78860
      H   51    0.20359      0.00000     0.79483    0.00158     0.79641
     Rh   52   -0.34489     35.98577     9.33040    0.02872    45.34489
      C   53   -0.18974      1.99908     4.17092    0.01973     6.18974
      C   54   -0.15671      1.99910     4.13754    0.02007     6.15671
      C   55   -0.19387      1.99909     4.17530    0.01948     6.19387
      C   56   -0.15212      1.99909     4.13313    0.01990     6.15212
      C   57   -0.42369      1.99935     4.41230    0.01204     6.42369
      H   58    0.22086      0.00000     0.77698    0.00216     0.77914
      H   59    0.22372      0.00000     0.77398    0.00229     0.77628
      C   60   -0.41716      1.99935     4.40507    0.01274     6.41716
      C   61   -0.42277      1.99935     4.41141    0.01200     6.42277
      H   62    0.22097      0.00000     0.77684    0.00219     0.77903
      C   63   -0.41753      1.99935     4.40536    0.01282     6.41753
      H   64    0.21849      0.00000     0.77921    0.00230     0.78151
      H   65    0.22785      0.00000     0.77064    0.00151     0.77215
      H   66    0.21668      0.00000     0.78133    0.00199     0.78332
      H   67    0.23501      0.00000     0.76314    0.00186     0.76499
      H   68    0.21549      0.00000     0.78280    0.00170     0.78451
      H   69    0.21627      0.00000     0.78173    0.00200     0.78373
      H   70    0.22793      0.00000     0.77057    0.00150     0.77207
      H   71    0.21567      0.00000     0.78256    0.00177     0.78433
      H   72    0.23471      0.00000     0.76339    0.00189     0.76529
 =======================================================================
   * Total *    1.00000    101.96409   155.53913    0.49678   258.00000

 Normal termination of Gaussian 16 at Tue Jan 21 10:21:30 2025.
