 Gaussian 16, Revision B.01,
 Gaussian 16:  ES64L-G16RevB.01 20-Dec-2017

 ------------------------------------------
 # nmr=giao b3lyp/genecp pop=nbo scfcyc=200
 ------------------------------------------

 ----------
 MB-121_SPE
 ----------
 Symbolic Z-matrix:
 Charge =  1 Multiplicity = 1

                         Standard orientation:
 ---------------------------------------------------------------------
 Center     Atomic      Atomic             Coordinates (Angstroms)
 Number     Number       Type             X           Y           Z
 ---------------------------------------------------------------------
      1         15           0        1.598350    0.037501   -0.123410
      2         15           0       -1.098610    0.330320   -0.797740
      3          7           0        1.400581   -2.742749   -1.486100
      4          1           0        0.713360   -2.402079   -0.820380
      5          7           0        3.315330    2.026391   -1.870440
      6          1           0        3.382190    1.027841   -1.990900
      7          7           0       -4.116070    0.104580   -0.378320
      8          1           0       -3.647470    0.984090   -0.211480
      9          7           0       -1.631441    2.284780    1.697720
     10          1           0       -1.133480    1.403090    1.720060
     11          6           0        0.564360    0.377201   -1.655690
     12          1           0        0.795630    1.311441   -2.162390
     13          1           0        0.682290   -0.457899   -2.342070
     14          6           0        2.968200   -1.103089   -0.586950
     15          6           0        2.702560   -2.355449   -1.206060
     16          6           0        3.795231   -3.165959   -1.555050
     17          1           0        3.624201   -4.112749   -2.046870
     18          6           0        5.094991   -2.784578   -1.257760
     19          1           0        5.912811   -3.438088   -1.535200
     20          6           0        5.351280   -1.590448   -0.592980
     21          1           0        6.362740   -1.303218   -0.338650
     22          6           0        4.286510   -0.764709   -0.260930
     23          1           0        4.480590    0.168451    0.252620
     24          6           0        1.093251   -4.059609   -2.023620
     25          1           0        0.012801   -4.141880   -2.130770
     26          1           0        1.446581   -4.880889   -1.388370
     27          1           0        1.533021   -4.179899   -3.014880
     28          6           0        2.350890    1.638241    0.340840
     29          6           0        3.070659    2.450701   -0.580350
     30          6           0        3.494579    3.719111   -0.144670
     31          1           0        4.032619    4.364261   -0.824050
     32          6           0        3.252659    4.153741    1.148200
     33          1           0        3.604799    5.133221    1.447810
     34          6           0        2.579909    3.346211    2.060100
     35          1           0        2.404989    3.681291    3.073660
     36          6           0        2.132459    2.102581    1.642200
     37          1           0        1.585990    1.473421    2.332440
     38          6           0        4.132229    2.791871   -2.800230
     39          1           0        4.196889    2.236991   -3.734410
     40          1           0        5.148929    2.969342   -2.431250
     41          1           0        3.668389    3.755331   -3.017250
     42          6           0       -2.311180   -0.514450   -1.895090
     43          6           0       -3.680840   -0.560170   -1.517290
     44          6           0       -4.559640   -1.328321   -2.296550
     45          1           0       -5.605020   -1.381221   -2.028650
     46          6           0       -4.114760   -2.007760   -3.421180
     47          1           0       -4.821489   -2.585911   -4.003500
     48          6           0       -2.782890   -1.936670   -3.810390
     49          1           0       -2.436520   -2.449310   -4.697910
     50          6           0       -1.895540   -1.192550   -3.042910
     51          1           0       -0.860130   -1.152400   -3.350840
     52          6           0       -5.524180    0.130909   -0.008080
     53          1           0       -5.628840    0.732739    0.893110
     54          1           0       -5.878950   -0.875431    0.220020
     55          1           0       -6.167400    0.558669   -0.786010
     56          6           0       -1.636641    2.097110   -0.741070
     57          6           0       -1.798661    2.847380    0.454080
     58          6           0       -2.192241    4.196700    0.330920
     59          1           0       -2.318741    4.796230    1.220790
     60          6           0       -2.418321    4.771860   -0.906210
     61          1           0       -2.719431    5.811120   -0.956210
     62          6           0       -2.263601    4.033730   -2.078050
     63          1           0       -2.444391    4.481680   -3.045810
     64          6           0       -1.875031    2.709030   -1.979190
     65          1           0       -1.763921    2.124610   -2.885290
     66          6           0       -1.591111    3.068030    2.918510
     67          1           0       -1.383281    2.396740    3.750460
     68          1           0       -2.554271    3.544260    3.114800
     69          1           0       -0.818111    3.844800    2.899390
     70         45           0       -0.227050   -0.815110    1.097660
     71          6           0        0.829280   -2.482329    2.247390
     72          6           0        0.807750   -1.349399    3.033040
     73          6           0       -2.056530   -1.284580    2.420900
     74          6           0       -1.970370   -2.236740    1.431920
     75          6           0       -0.083239   -3.684770    2.409570
     76          1           0        1.729831   -2.652869    1.667630
     77          1           0        1.706470   -0.740899    3.037800
     78          6           0       -0.166530   -1.039140    4.142510
     79          6           0       -1.623930   -1.469050    3.863270
     80          1           0       -2.711650   -0.443440    2.223080
     81          6           0       -1.370119   -3.615060    1.559220
     82          1           0       -2.587110   -2.086020    0.553450
     83          1           0        0.472611   -4.579619    2.124690
     84          1           0       -0.332189   -3.812100    3.462920
     85          1           0        0.181240   -1.497750    5.076580
     86          1           0       -0.137870    0.038930    4.319460
     87          1           0       -1.773230   -2.506990    4.160000
     88          1           0       -2.285070   -0.879510    4.500790
     89          1           0       -1.156829   -3.979950    0.552150
     90          1           0       -2.119909   -4.304270    1.967560
 ---------------------------------------------------------------------

 SCF Done:  E(RB3LYP) =  -2450.39985017     A.U. after   17 cycles

      1  P    Isotropic =   329.0308   Anisotropy =   110.3523

      2  P    Isotropic =   350.5170   Anisotropy =    96.7988

      3  N    Isotropic =   169.7199   Anisotropy =    50.3285

      4  H    Isotropic =    26.3295   Anisotropy =    17.3537

      5  N    Isotropic =   171.9743   Anisotropy =    39.4293

      6  H    Isotropic =    28.9556   Anisotropy =    14.0987

      7  N    Isotropic =   179.2703   Anisotropy =    37.9316

      8  H    Isotropic =    28.8189   Anisotropy =    17.2027

      9  N    Isotropic =   172.2708   Anisotropy =    64.7480

     10  H    Isotropic =    25.0079   Anisotropy =    18.5594

     11  C    Isotropic =   140.4560   Anisotropy =    51.5561

     12  H    Isotropic =    28.3883   Anisotropy =     9.8237

     13  H    Isotropic =    26.4868   Anisotropy =     3.7299

     14  C    Isotropic =    69.3116   Anisotropy =   122.6456

     15  C    Isotropic =    27.5420   Anisotropy =   169.8624

     16  C    Isotropic =    67.1338   Anisotropy =   160.2667

     17  H    Isotropic =    24.8722   Anisotropy =     9.5226

     18  C    Isotropic =    43.8033   Anisotropy =   194.7884

     19  H    Isotropic =    24.1662   Anisotropy =     4.2242

     20  C    Isotropic =    59.9104   Anisotropy =   171.8871

     21  H    Isotropic =    24.9435   Anisotropy =     6.4882

     22  C    Isotropic =    46.8251   Anisotropy =   184.9819

     23  H    Isotropic =    25.0820   Anisotropy =    12.5100

     24  C    Isotropic =   153.3922   Anisotropy =    43.5093

     25  H    Isotropic =    28.7222   Anisotropy =     6.5100

     26  H    Isotropic =    29.0637   Anisotropy =    10.1615

     27  H    Isotropic =    28.7727   Anisotropy =    10.7574

     28  C    Isotropic =    70.2188   Anisotropy =   125.1848

     29  C    Isotropic =    26.6460   Anisotropy =   173.0993

     30  C    Isotropic =    67.5928   Anisotropy =   160.6220

     31  H    Isotropic =    25.1444   Anisotropy =     7.6329

     32  C    Isotropic =    42.6586   Anisotropy =   197.2529

     33  H    Isotropic =    24.1588   Anisotropy =     3.6518

     34  C    Isotropic =    62.5855   Anisotropy =   167.5482

     35  H    Isotropic =    24.7872   Anisotropy =     6.3320

     36  C    Isotropic =    40.4582   Anisotropy =   173.8634

     37  H    Isotropic =    23.9257   Anisotropy =     8.9799

     38  C    Isotropic =   153.7904   Anisotropy =    46.7693

     39  H    Isotropic =    29.3164   Anisotropy =    10.1334

     40  H    Isotropic =    29.3810   Anisotropy =    11.5924

     41  H    Isotropic =    29.3121   Anisotropy =    10.2915

     42  C    Isotropic =    62.7171   Anisotropy =   133.0025

     43  C    Isotropic =    26.1333   Anisotropy =   172.6490

     44  C    Isotropic =    66.5493   Anisotropy =   162.5473

     45  H    Isotropic =    25.0311   Anisotropy =     8.9939

     46  C    Isotropic =    44.7601   Anisotropy =   193.6959

     47  H    Isotropic =    24.1075   Anisotropy =     3.8436

     48  C    Isotropic =    60.9392   Anisotropy =   170.1155

     49  H    Isotropic =    24.6014   Anisotropy =     5.9416

     50  C    Isotropic =    48.9236   Anisotropy =   182.6840

     51  H    Isotropic =    24.1115   Anisotropy =    10.6693

     52  C    Isotropic =   153.5232   Anisotropy =    46.2290

     53  H    Isotropic =    29.4160   Anisotropy =     9.1521

     54  H    Isotropic =    29.3808   Anisotropy =    10.0461

     55  H    Isotropic =    29.5562   Anisotropy =    11.8469

     56  C    Isotropic =    67.7880   Anisotropy =   123.7557

     57  C    Isotropic =    26.7058   Anisotropy =   178.4021

     58  C    Isotropic =    69.9023   Anisotropy =   156.9402

     59  H    Isotropic =    25.3841   Anisotropy =     8.6636

     60  C    Isotropic =    44.0195   Anisotropy =   195.2851

     61  H    Isotropic =    24.4941   Anisotropy =     3.8021

     62  C    Isotropic =    61.0774   Anisotropy =   169.8720

     63  H    Isotropic =    25.2209   Anisotropy =     5.7926

     64  C    Isotropic =    45.0977   Anisotropy =   185.7929

     65  H    Isotropic =    24.9362   Anisotropy =    11.6830

     66  C    Isotropic =   154.1688   Anisotropy =    42.1265

     67  H    Isotropic =    28.7017   Anisotropy =     6.8600

     68  H    Isotropic =    28.8506   Anisotropy =    11.3686

     69  H    Isotropic =    29.1092   Anisotropy =     9.1982

     70  Rh   Isotropic =  -313.4082   Anisotropy =   349.5904

     71  C    Isotropic =    74.2394   Anisotropy =   129.0150

     72  C    Isotropic =    78.5464   Anisotropy =   114.1727

     73  C    Isotropic =    75.7738   Anisotropy =   126.6181

     74  C    Isotropic =    69.5681   Anisotropy =   129.5300

     75  C    Isotropic =   153.9031   Anisotropy =    25.3937

     76  H    Isotropic =    27.7855   Anisotropy =     4.8080

     77  H    Isotropic =    26.5015   Anisotropy =     4.9347

     78  C    Isotropic =   147.2199   Anisotropy =    29.3248

     79  C    Isotropic =   154.4641   Anisotropy =    24.5881

     80  H    Isotropic =    26.3249   Anisotropy =     5.2366

     81  C    Isotropic =   148.1678   Anisotropy =    28.4480

     82  H    Isotropic =    26.6031   Anisotropy =     5.4689

     83  H    Isotropic =    30.0574   Anisotropy =    10.6913

     84  H    Isotropic =    29.7977   Anisotropy =    10.0272

     85  H    Isotropic =    28.9790   Anisotropy =    13.0129

     86  H    Isotropic =    28.9192   Anisotropy =     7.8258

     87  H    Isotropic =    29.7284   Anisotropy =     9.7448

     88  H    Isotropic =    29.7352   Anisotropy =    11.2158

     89  H    Isotropic =    29.4173   Anisotropy =     6.4739

     90  H    Isotropic =    29.2781   Anisotropy =    12.2043

 The electronic state is 1-A.
 Alpha  occ. eigenvalues --  -77.23496 -77.23399 -14.42801 -14.42575 -14.42233
 Alpha  occ. eigenvalues --  -14.42084 -10.32065 -10.31988 -10.31889 -10.31496
 Alpha  occ. eigenvalues --  -10.29338 -10.29201 -10.29186 -10.29121 -10.29104
 Alpha  occ. eigenvalues --  -10.28855 -10.28835 -10.28713 -10.28600 -10.28573
 Alpha  occ. eigenvalues --  -10.28531 -10.28437 -10.28150 -10.27868 -10.27682
 Alpha  occ. eigenvalues --  -10.27679 -10.27552 -10.27482 -10.27448 -10.27416
 Alpha  occ. eigenvalues --  -10.27207 -10.26879 -10.26874 -10.26551 -10.26504
 Alpha  occ. eigenvalues --  -10.26421 -10.26196 -10.26002 -10.25935 -10.25856
 Alpha  occ. eigenvalues --  -10.25777 -10.25634 -10.25355  -6.69437  -6.69319
 Alpha  occ. eigenvalues --   -4.85707  -4.85660  -4.85609  -4.85535  -4.85368
 Alpha  occ. eigenvalues --   -4.85244  -3.31788  -2.08580  -2.07903  -2.05473
 Alpha  occ. eigenvalues --   -1.03911  -1.03681  -1.03577  -1.03160  -0.94730
 Alpha  occ. eigenvalues --   -0.94538  -0.94380  -0.94273  -0.93961  -0.89237
 Alpha  occ. eigenvalues --   -0.89010  -0.88149  -0.86691  -0.84610  -0.84280
 Alpha  occ. eigenvalues --   -0.84134  -0.84024  -0.83807  -0.83766  -0.83039
 Alpha  occ. eigenvalues --   -0.80444  -0.78162  -0.77960  -0.77888  -0.77768
 Alpha  occ. eigenvalues --   -0.77402  -0.75156  -0.72956  -0.71021  -0.70715
 Alpha  occ. eigenvalues --   -0.70473  -0.68990  -0.68942  -0.68662  -0.68623
 Alpha  occ. eigenvalues --   -0.67260  -0.66568  -0.65863  -0.63294  -0.62902
 Alpha  occ. eigenvalues --   -0.62545  -0.62004  -0.61379  -0.60082  -0.59716
 Alpha  occ. eigenvalues --   -0.59262  -0.59118  -0.58877  -0.57069  -0.56629
 Alpha  occ. eigenvalues --   -0.56543  -0.56336  -0.56228  -0.55451  -0.55303
 Alpha  occ. eigenvalues --   -0.54532  -0.54076  -0.54037  -0.53999  -0.53868
 Alpha  occ. eigenvalues --   -0.53676  -0.53507  -0.53392  -0.53123  -0.52858
 Alpha  occ. eigenvalues --   -0.52637  -0.52598  -0.52042  -0.51843  -0.51744
 Alpha  occ. eigenvalues --   -0.51190  -0.50449  -0.49501  -0.48929  -0.48717
 Alpha  occ. eigenvalues --   -0.48527  -0.48346  -0.48191  -0.48069  -0.47831
 Alpha  occ. eigenvalues --   -0.47464  -0.47118  -0.46922  -0.46821  -0.46295
 Alpha  occ. eigenvalues --   -0.46188  -0.46006  -0.45582  -0.45129  -0.45057
 Alpha  occ. eigenvalues --   -0.44370  -0.43643  -0.43178  -0.43143  -0.42990
 Alpha  occ. eigenvalues --   -0.42854  -0.42336  -0.41359  -0.39983  -0.39779
 Alpha  occ. eigenvalues --   -0.39465  -0.39242  -0.37824  -0.37153  -0.35883
 Alpha  occ. eigenvalues --   -0.35606  -0.35069  -0.34866  -0.34630  -0.34271
 Alpha  occ. eigenvalues --   -0.34063  -0.31461  -0.30564  -0.30303  -0.30072
 Alpha  occ. eigenvalues --   -0.29757
 Alpha virt. eigenvalues --   -0.16447  -0.14646  -0.12738  -0.12105  -0.11800
 Alpha virt. eigenvalues --   -0.10655  -0.10034  -0.09579  -0.09247  -0.09164
 Alpha virt. eigenvalues --   -0.08562  -0.07748  -0.06869  -0.06411  -0.05863

 Mulliken charges:
               1
     1  P    0.175017
     2  P    0.403789
     3  N   -0.210426
     4  H    0.267551
     5  N   -0.205128
     6  H    0.251491
     7  N   -0.213442
     8  H    0.256233
     9  N   -0.220703
    10  H    0.258752
    11  C   -0.548286
    12  H    0.248229
    13  H    0.218769
    14  C   -0.305682
    15  C    0.144302
    16  C   -0.121299
    17  H    0.147564
    18  C   -0.109578
    19  H    0.129412
    20  C   -0.082913
    21  H    0.128380
    22  C   -0.095392
    23  H    0.158246
    24  C   -0.333071
    25  H    0.151400
    26  H    0.143633
    27  H    0.154217
    28  C   -0.295525
    29  C    0.217164
    30  C   -0.138958
    31  H    0.149712
    32  C   -0.094442
    33  H    0.128339
    34  C   -0.139113
    35  H    0.117612
    36  C   -0.030851
    37  H    0.126287
    38  C   -0.309061
    39  H    0.143339
    40  H    0.143602
    41  H    0.149451
    42  C   -0.234054
    43  C    0.119371
    44  C   -0.104753
    45  H    0.148734
    46  C   -0.119411
    47  H    0.126750
    48  C   -0.091095
    49  H    0.122586
    50  C   -0.119481
    51  H    0.109503
    52  C   -0.314107
    53  H    0.142404
    54  H    0.146076
    55  H    0.146429
    56  C   -0.463048
    57  C    0.243887
    58  C   -0.139333
    59  H    0.143939
    60  C   -0.107813
    61  H    0.128309
    62  C   -0.097641
    63  H    0.123580
    64  C   -0.077896
    65  H    0.141017
    66  C   -0.316422
    67  H    0.137540
    68  H    0.149530
    69  H    0.150312
    70  Rh  -0.777587
    71  C   -0.035208
    72  C   -0.083803
    73  C   -0.011036
    74  C   -0.107203
    75  C   -0.360089
    76  H    0.224886
    77  H    0.191299
    78  C   -0.238397
    79  C   -0.349790
    80  H    0.202934
    81  C   -0.244409
    82  H    0.238613
    83  H    0.171801
    84  H    0.170416
    85  H    0.175557
    86  H    0.127530
    87  H    0.169231
    88  H    0.172621
    89  H    0.133416
    90  H    0.175675
 Sum of Mulliken charges =   1.00000

 Dipole moment (field-independent basis, Debye):
    X=             -0.0072    Y=             -0.7996    Z=              0.6932  Tot=              1.0583
 Quadrupole moment (field-independent basis, Debye-Ang):
   XX=           -233.8676   YY=           -236.7978   ZZ=           -249.2566
   XY=              2.9455   XZ=            -11.2315   YZ=              4.1392

 Summary of Natural Population Analysis:

                                       Natural Population
                Natural  -----------------------------------------------
    Atom  No    Charge         Core      Valence    Rydberg      Total
 -----------------------------------------------------------------------
      P    1    1.11861      9.99645     3.83065    0.05428    13.88139
      P    2    1.09921      9.99647     3.85139    0.05293    13.90079
      N    3   -0.57384      1.99951     5.55726    0.01707     7.57384
      H    4    0.39249      0.00000     0.60424    0.00327     0.60751
      N    5   -0.56933      1.99950     5.55264    0.01719     7.56933
      H    6    0.39200      0.00000     0.60513    0.00287     0.60800
      N    7   -0.57780      1.99950     5.56140    0.01690     7.57780
      H    8    0.39551      0.00000     0.60191    0.00258     0.60449
      N    9   -0.55813      1.99950     5.54201    0.01662     7.55813
      H   10    0.39681      0.00000     0.59975    0.00344     0.60319
      C   11   -0.98029      1.99939     4.96198    0.01892     6.98029
      H   12    0.27187      0.00000     0.72605    0.00208     0.72813
      H   13    0.26718      0.00000     0.73085    0.00197     0.73282
      C   14   -0.40522      1.99894     4.38268    0.02360     6.40522
      C   15    0.16945      1.99895     3.81192    0.01968     5.83055
      C   16   -0.26222      1.99911     4.24821    0.01490     6.26222
      H   17    0.22074      0.00000     0.77755    0.00171     0.77926
      C   18   -0.15480      1.99921     4.14066    0.01493     6.15480
      H   19    0.22068      0.00000     0.77819    0.00113     0.77932
      C   20   -0.23949      1.99918     4.22433    0.01598     6.23949
      H   21    0.22276      0.00000     0.77602    0.00122     0.77724
      C   22   -0.18444      1.99912     4.16921    0.01611     6.18444
      H   23    0.22416      0.00000     0.77403    0.00181     0.77584
      C   24   -0.40864      1.99939     4.39841    0.01084     6.40864
      H   25    0.21275      0.00000     0.78584    0.00141     0.78725
      H   26    0.18387      0.00000     0.81355    0.00259     0.81613
      H   27    0.20384      0.00000     0.79443    0.00172     0.79616
      C   28   -0.40586      1.99894     4.38331    0.02361     6.40586
      C   29    0.18486      1.99895     3.79635    0.01985     5.81514
      C   30   -0.26298      1.99911     4.24905    0.01482     6.26298
      H   31    0.22162      0.00000     0.77666    0.00172     0.77838
      C   32   -0.14769      1.99921     4.13371    0.01477     6.14769
      H   33    0.21963      0.00000     0.77923    0.00113     0.78037
      C   34   -0.25141      1.99917     4.23616    0.01608     6.25141
      H   35    0.21828      0.00000     0.78038    0.00134     0.78172
      C   36   -0.15632      1.99912     4.14145    0.01575     6.15632
      H   37    0.21057      0.00000     0.78715    0.00229     0.78943
      C   38   -0.40567      1.99938     4.39600    0.01029     6.40567
      H   39    0.21336      0.00000     0.78550    0.00115     0.78664
      H   40    0.18791      0.00000     0.80964    0.00246     0.81209
      H   41    0.20119      0.00000     0.79705    0.00176     0.79881
      C   42   -0.37635      1.99893     4.35446    0.02297     6.37635
      C   43    0.17018      1.99894     3.81144    0.01944     5.82982
      C   44   -0.26081      1.99911     4.24701    0.01470     6.26081
      H   45    0.22114      0.00000     0.77713    0.00173     0.77886
      C   46   -0.15916      1.99921     4.14499    0.01497     6.15916
      H   47    0.21969      0.00000     0.77917    0.00114     0.78031
      C   48   -0.24113      1.99918     4.22597    0.01598     6.24113
      H   49    0.21953      0.00000     0.77922    0.00125     0.78047
      C   50   -0.18094      1.99911     4.16590    0.01592     6.18094
      H   51    0.20676      0.00000     0.79107    0.00217     0.79324
      C   52   -0.40560      1.99939     4.39570    0.01052     6.40560
      H   53    0.21095      0.00000     0.78787    0.00118     0.78905
      H   54    0.19860      0.00000     0.79965    0.00176     0.80140
      H   55    0.18758      0.00000     0.80998    0.00244     0.81242
      C   56   -0.41900      1.99895     4.39422    0.02583     6.41900
      C   57    0.17893      1.99895     3.80197    0.02016     5.82107
      C   58   -0.26576      1.99912     4.25176    0.01488     6.26576
      H   59    0.21909      0.00000     0.77920    0.00171     0.78091
      C   60   -0.14931      1.99921     4.13540    0.01471     6.14931
      H   61    0.21935      0.00000     0.77953    0.00112     0.78065
      C   62   -0.24538      1.99918     4.22996    0.01625     6.24538
      H   63    0.22193      0.00000     0.77677    0.00130     0.77807
      C   64   -0.16645      1.99911     4.15005    0.01729     6.16645
      H   65    0.21526      0.00000     0.78237    0.00236     0.78474
      C   66   -0.40410      1.99938     4.39412    0.01060     6.40410
      H   67    0.20466      0.00000     0.79396    0.00138     0.79534
      H   68    0.19939      0.00000     0.79870    0.00191     0.80061
      H   69    0.19048      0.00000     0.80676    0.00276     0.80952
     Rh   70   -0.47333     35.98617     9.45969    0.02747    45.47333
      C   71   -0.16214      1.99907     4.14332    0.01975     6.16214
      C   72   -0.17117      1.99908     4.15218    0.01991     6.17117
      C   73   -0.18559      1.99907     4.16641    0.02010     6.18559
      C   74   -0.15565      1.99910     4.13560    0.02095     6.15565
      C   75   -0.42441      1.99936     4.41318    0.01187     6.42441
      H   76    0.23151      0.00000     0.76649    0.00200     0.76849
      H   77    0.22773      0.00000     0.77017    0.00211     0.77227
      C   78   -0.41638      1.99935     4.40423    0.01279     6.41638
      C   79   -0.42469      1.99936     4.41352    0.01182     6.42469
      H   80    0.23717      0.00000     0.76036    0.00247     0.76283
      C   81   -0.41848      1.99935     4.40614    0.01300     6.41848
      H   82    0.24104      0.00000     0.75679    0.00217     0.75896
      H   83    0.22818      0.00000     0.77028    0.00153     0.77182
      H   84    0.21625      0.00000     0.78179    0.00197     0.78375
      H   85    0.23552      0.00000     0.76255    0.00193     0.76448
      H   86    0.20915      0.00000     0.78895    0.00189     0.79085
      H   87    0.21592      0.00000     0.78211    0.00197     0.78408
      H   88    0.22760      0.00000     0.77088    0.00152     0.77240
      H   89    0.21201      0.00000     0.78619    0.00180     0.78799
      H   90    0.23508      0.00000     0.76308    0.00185     0.76492
 =======================================================================
   * Total *    1.00000    137.94579   231.15017    0.90404   370.00000

 Normal termination of Gaussian 16 at Wed Jan 22 00:56:26 2025.
