 Gaussian 16, Revision B.01,
 Gaussian 16:  ES64L-G16RevB.01 20-Dec-2017

 ------------------------------------------
 # nmr=giao b3lyp/genecp pop=nbo scfcyc=200
 ------------------------------------------

 ----------
 MB-113_SPE
 ----------
 Symbolic Z-matrix:
 Charge =  1 Multiplicity = 1

                         Standard orientation:
 ---------------------------------------------------------------------
 Center     Atomic      Atomic             Coordinates (Angstroms)
 Number     Number       Type             X           Y           Z
 ---------------------------------------------------------------------
      1         15           0       -1.423560   -0.483550   -0.065000
      2         15           0        1.408380   -0.367659    0.034210
      3          6           0        0.042661   -1.656089   -0.046300
      4          1           0        0.047011   -2.264839   -0.945740
      5          1           0        0.083921   -2.321879    0.811870
      6          6           0       -2.305089   -0.942600   -1.629800
      7          6           0       -2.244980    0.009460   -2.656080
      8          1           0       -1.715240    0.936890   -2.481920
      9          6           0       -2.844200   -0.216740   -3.886700
     10          1           0       -2.785250    0.532390   -4.666010
     11          6           0       -3.524969   -1.409080   -4.100700
     12          1           0       -4.014239   -1.597750   -5.048160
     13          6           0       -3.574059   -2.363780   -3.094720
     14          1           0       -4.104609   -3.291980   -3.273720
     15          6           0       -2.960659   -2.171520   -1.851440
     16          6           0       -3.038269   -3.303420   -0.846730
     17          1           0       -2.698299   -2.977190    0.133650
     18          1           0       -4.088889   -3.579960   -0.718390
     19          6           0       -2.475549   -0.832080    1.423580
     20          6           0       -1.876239   -1.456820    2.522700
     21          1           0       -0.842819   -1.771350    2.483220
     22          6           0       -2.579799   -1.679110    3.699050
     23          1           0       -2.094149   -2.168360    4.533660
     24          6           0       -3.900519   -1.266160    3.788970
     25          1           0       -4.467349   -1.434760    4.695970
     26          6           0       -4.495689   -0.619880    2.712200
     27          1           0       -5.520930   -0.290820    2.807870
     28          6           0       -3.810700   -0.375240    1.519600
     29          6           0       -4.505800    0.341590    0.375130
     30          1           0       -3.791540    1.014350   -0.106350
     31          1           0       -4.766630   -0.390280   -0.394830
     32          6           0        2.516970   -0.584829   -1.437250
     33          6           0        2.010221   -1.247339   -2.559660
     34          1           0        1.015331   -1.669539   -2.549230
     35          6           0        2.757291   -1.372119   -3.723620
     36          1           0        2.342841   -1.892929   -4.577320
     37          6           0        4.028871   -0.821649   -3.777130
     38          1           0        4.628211   -0.911619   -4.674380
     39          6           0        4.531840   -0.140029   -2.675360
     40          1           0        5.519550    0.294311   -2.741250
     41          6           0        3.800210    0.007511   -1.494550
     42          6           0        4.396120    0.760031   -0.317650
     43          1           0        3.609330    1.349311    0.159680
     44          1           0        4.707950    0.038301    0.443420
     45          6           0        2.289091   -0.806159    1.603330
     46          6           0        2.105790    0.083561    2.665580
     47          1           0        1.507230    0.972021    2.510300
     48          6           0        2.664680   -0.159009    3.914450
     49          1           0        2.509730    0.541161    4.725440
     50          6           0        3.418581   -1.307079    4.103210
     51          1           0        3.867981   -1.514349    5.066470
     52          6           0        3.594571   -2.205039    3.054760
     53          1           0        4.177181   -3.098199    3.231510
     54          6           0        3.039401   -1.991259    1.791240
     55          6           0        3.253651   -2.998919    0.675530
     56          1           0        2.295941   -3.192419    0.184690
     57          1           0        3.877891   -2.540429   -0.096460
     58         45           0       -0.089850    1.491731    0.010620
     59          6           0       -1.623300    3.104160   -0.509280
     60          6           0       -1.584510    2.929450    0.859560
     61          6           0        1.299470    3.212731    0.587120
     62          6           0        1.275160    3.080651   -0.786580
     63          6           0       -0.965320    4.235070   -1.277510
     64          1           0       -2.400840    2.573060   -1.045660
     65          1           0       -2.338330    2.285580    1.300610
     66          6           0       -0.843990    3.783240    1.858980
     67          6           0        0.547480    4.257581    1.390110
     68          1           0        2.117930    2.731061    1.109080
     69          6           0        0.461710    3.898711   -1.758800
     70          1           0        2.080460    2.518281   -1.247530
     71          1           0       -1.579000    4.466050   -2.149850
     72          1           0       -0.960090    5.139360   -0.669360
     73          1           0       -1.461770    4.649060    2.129040
     74          1           0       -0.734800    3.199580    2.775620
     75          1           0        0.462250    5.176561    0.810620
     76          1           0        1.140560    4.513441    2.269720
     77          1           0        0.402280    3.337091   -2.693550
     78          1           0        1.001390    4.823161   -2.000380
     79          6           0       -5.756880    1.144910    0.734330
     80          1           0       -6.113710    1.681060   -0.146200
     81          1           0       -6.573690    0.505600    1.072000
     82          1           0       -5.557790    1.880730    1.516150
     83          6           0       -2.249969   -4.553190   -1.270240
     84          1           0       -2.609379   -4.952580   -2.219520
     85          1           0       -1.185829   -4.337120   -1.387590
     86          1           0       -2.351709   -5.338360   -0.519060
     87          6           0        3.871411   -4.339519    1.073570
     88          1           0        3.925201   -4.990799    0.200180
     89          1           0        4.887861   -4.226459    1.454020
     90          1           0        3.279261   -4.852709    1.833930
     91          6           0        5.573050    1.686771   -0.626630
     92          1           0        5.856860    2.232371    0.274400
     93          1           0        6.454470    1.136042   -0.957870
     94          1           0        5.322760    2.419471   -1.396540
 ---------------------------------------------------------------------

 SCF Done:  E(RB3LYP) =  -2386.21123156     A.U. after   16 cycles

      1  P    Isotropic =   325.8419   Anisotropy =   115.5537

      2  P    Isotropic =   329.1195   Anisotropy =   122.1385

      3  C    Isotropic =   129.4893   Anisotropy =    47.5009

      4  H    Isotropic =    27.4576   Anisotropy =     6.5977

      5  H    Isotropic =    27.7732   Anisotropy =     4.9182

      6  C    Isotropic =    43.9013   Anisotropy =   160.5924

      7  C    Isotropic =    42.7432   Anisotropy =   171.8373

      8  H    Isotropic =    23.2324   Anisotropy =     9.2766

      9  C    Isotropic =    52.3434   Anisotropy =   183.0508

     10  H    Isotropic =    24.2664   Anisotropy =     6.6853

     11  C    Isotropic =    44.9886   Anisotropy =   194.4832

     12  H    Isotropic =    23.9909   Anisotropy =     3.4184

     13  C    Isotropic =    46.0743   Anisotropy =   177.5701

     14  H    Isotropic =    24.2227   Anisotropy =     8.5430

     15  C    Isotropic =    27.4912   Anisotropy =   205.1142

     16  C    Isotropic =   154.3591   Anisotropy =    19.2183

     17  H    Isotropic =    29.7717   Anisotropy =    14.8426

     18  H    Isotropic =    29.6528   Anisotropy =     7.3218

     19  C    Isotropic =    45.2485   Anisotropy =   157.0405

     20  C    Isotropic =    51.5151   Anisotropy =   182.6405

     21  H    Isotropic =    24.8051   Anisotropy =     9.0073

     22  C    Isotropic =    51.8240   Anisotropy =   184.6716

     23  H    Isotropic =    24.4932   Anisotropy =     7.1482

     24  C    Isotropic =    46.9361   Anisotropy =   192.0641

     25  H    Isotropic =    24.1828   Anisotropy =     3.8331

     26  C    Isotropic =    50.2809   Anisotropy =   186.7524

     27  H    Isotropic =    24.3181   Anisotropy =     9.5162

     28  C    Isotropic =    30.8207   Anisotropy =   202.6318

     29  C    Isotropic =   151.6031   Anisotropy =     7.4266

     30  H    Isotropic =    30.4283   Anisotropy =    11.4748

     31  H    Isotropic =    30.1643   Anisotropy =    10.9341

     32  C    Isotropic =    46.9365   Anisotropy =   156.6970

     33  C    Isotropic =    51.5545   Anisotropy =   182.7543

     34  H    Isotropic =    24.6692   Anisotropy =     9.2829

     35  C    Isotropic =    51.4981   Anisotropy =   185.2410

     36  H    Isotropic =    24.4389   Anisotropy =     6.9330

     37  C    Isotropic =    46.8740   Anisotropy =   192.2196

     38  H    Isotropic =    24.1601   Anisotropy =     3.7093

     39  C    Isotropic =    50.9021   Anisotropy =   186.3919

     40  H    Isotropic =    24.3041   Anisotropy =     9.5000

     41  C    Isotropic =    30.7794   Anisotropy =   202.0388

     42  C    Isotropic =   151.9407   Anisotropy =     7.9468

     43  H    Isotropic =    30.3682   Anisotropy =    11.4590

     44  H    Isotropic =    30.1395   Anisotropy =    10.6586

     45  C    Isotropic =    44.9463   Anisotropy =   160.9621

     46  C    Isotropic =    42.6614   Anisotropy =   171.9222

     47  H    Isotropic =    23.1307   Anisotropy =     9.2003

     48  C    Isotropic =    52.5840   Anisotropy =   182.5811

     49  H    Isotropic =    24.2198   Anisotropy =     6.6598

     50  C    Isotropic =    44.8888   Anisotropy =   195.2124

     51  H    Isotropic =    23.9307   Anisotropy =     3.7252

     52  C    Isotropic =    50.6407   Anisotropy =   185.4131

     53  H    Isotropic =    24.1997   Anisotropy =     9.3786

     54  C    Isotropic =    29.6549   Anisotropy =   199.1073

     55  C    Isotropic =   153.3222   Anisotropy =     9.9648

     56  H    Isotropic =    29.8665   Anisotropy =    11.8457

     57  H    Isotropic =    30.0065   Anisotropy =    12.7239

     58  Rh   Isotropic =  -340.2012   Anisotropy =   370.7262

     59  C    Isotropic =    82.3345   Anisotropy =   116.4658

     60  C    Isotropic =    74.2463   Anisotropy =   121.3413

     61  C    Isotropic =    82.1931   Anisotropy =   116.7646

     62  C    Isotropic =    74.2369   Anisotropy =   121.3323

     63  C    Isotropic =   154.1638   Anisotropy =    24.6036

     64  H    Isotropic =    26.8580   Anisotropy =     4.9541

     65  H    Isotropic =    26.9671   Anisotropy =     5.6272

     66  C    Isotropic =   147.6754   Anisotropy =    29.3643

     67  C    Isotropic =   154.1310   Anisotropy =    24.6374

     68  H    Isotropic =    26.8461   Anisotropy =     4.8078

     69  C    Isotropic =   147.6445   Anisotropy =    29.4015

     70  H    Isotropic =    26.9610   Anisotropy =     5.6938

     71  H    Isotropic =    29.7868   Anisotropy =    11.3749

     72  H    Isotropic =    29.7937   Anisotropy =     9.8065

     73  H    Isotropic =    29.2561   Anisotropy =    12.5361

     74  H    Isotropic =    29.1983   Anisotropy =     6.5338

     75  H    Isotropic =    29.8051   Anisotropy =     9.7956

     76  H    Isotropic =    29.7898   Anisotropy =    11.3173

     77  H    Isotropic =    29.1790   Anisotropy =     6.5282

     78  H    Isotropic =    29.2478   Anisotropy =    12.5159

     79  C    Isotropic =   172.5077   Anisotropy =    18.3362

     80  H    Isotropic =    30.9330   Anisotropy =     9.7428

     81  H    Isotropic =    30.5518   Anisotropy =    11.2628

     82  H    Isotropic =    31.1078   Anisotropy =     8.5224

     83  C    Isotropic =   165.8896   Anisotropy =    29.4886

     84  H    Isotropic =    30.6287   Anisotropy =    10.5025

     85  H    Isotropic =    31.1043   Anisotropy =     5.2786

     86  H    Isotropic =    30.7386   Anisotropy =    10.9556

     87  C    Isotropic =   172.9958   Anisotropy =    17.2662

     88  H    Isotropic =    30.8266   Anisotropy =    10.0852

     89  H    Isotropic =    30.6169   Anisotropy =    10.7001

     90  H    Isotropic =    30.8706   Anisotropy =     9.7190

     91  C    Isotropic =   172.5426   Anisotropy =    18.2709

     92  H    Isotropic =    30.8992   Anisotropy =     9.7372

     93  H    Isotropic =    30.5206   Anisotropy =    11.2207

     94  H    Isotropic =    31.0669   Anisotropy =     8.5501

 The electronic state is 1-A.
 Alpha  occ. eigenvalues --  -77.23595 -77.23571 -10.29994 -10.29333 -10.29317
 Alpha  occ. eigenvalues --  -10.29213 -10.29110 -10.28960 -10.28958 -10.28882
 Alpha  occ. eigenvalues --  -10.28835 -10.28732 -10.28712 -10.28638 -10.28632
 Alpha  occ. eigenvalues --  -10.27766 -10.27758 -10.27737 -10.27735 -10.27341
 Alpha  occ. eigenvalues --  -10.27339 -10.27182 -10.27156 -10.27155 -10.27093
 Alpha  occ. eigenvalues --  -10.26937 -10.26870 -10.26846 -10.26822 -10.26821
 Alpha  occ. eigenvalues --  -10.26798 -10.26746 -10.26735 -10.26715 -10.26705
 Alpha  occ. eigenvalues --  -10.26682 -10.26588 -10.26554 -10.26514 -10.25048
 Alpha  occ. eigenvalues --  -10.24703 -10.24654 -10.24552  -6.69526  -6.69501
 Alpha  occ. eigenvalues --   -4.85823  -4.85799  -4.85741  -4.85715  -4.85428
 Alpha  occ. eigenvalues --   -4.85403  -3.31317  -2.08175  -2.07556  -2.04786
 Alpha  occ. eigenvalues --   -0.96717  -0.96524  -0.95962  -0.95934  -0.94310
 Alpha  occ. eigenvalues --   -0.89348  -0.89031  -0.88599  -0.88461  -0.88406
 Alpha  occ. eigenvalues --   -0.88279  -0.87890  -0.86392  -0.84719  -0.84640
 Alpha  occ. eigenvalues --   -0.83270  -0.82063  -0.81938  -0.81909  -0.81864
 Alpha  occ. eigenvalues --   -0.80202  -0.77683  -0.75262  -0.73651  -0.73463
 Alpha  occ. eigenvalues --   -0.73374  -0.73060  -0.72572  -0.70446  -0.70053
 Alpha  occ. eigenvalues --   -0.69854  -0.68448  -0.67945  -0.67619  -0.67365
 Alpha  occ. eigenvalues --   -0.65789  -0.65741  -0.65584  -0.62451  -0.61293
 Alpha  occ. eigenvalues --   -0.60792  -0.60112  -0.59858  -0.58948  -0.57455
 Alpha  occ. eigenvalues --   -0.57113  -0.56710  -0.56544  -0.56404  -0.56148
 Alpha  occ. eigenvalues --   -0.55690  -0.55105  -0.54820  -0.54583  -0.54378
 Alpha  occ. eigenvalues --   -0.54120  -0.53758  -0.53687  -0.53448  -0.52801
 Alpha  occ. eigenvalues --   -0.52634  -0.52618  -0.52520  -0.52446  -0.52378
 Alpha  occ. eigenvalues --   -0.52210  -0.51900  -0.50625  -0.49670  -0.49153
 Alpha  occ. eigenvalues --   -0.48385  -0.48221  -0.47928  -0.47796  -0.47554
 Alpha  occ. eigenvalues --   -0.47219  -0.47125  -0.46933  -0.46867  -0.46608
 Alpha  occ. eigenvalues --   -0.46381  -0.46057  -0.45858  -0.45618  -0.45575
 Alpha  occ. eigenvalues --   -0.45154  -0.44540  -0.44298  -0.44214  -0.44070
 Alpha  occ. eigenvalues --   -0.43799  -0.43578  -0.43475  -0.43372  -0.43321
 Alpha  occ. eigenvalues --   -0.43153  -0.42908  -0.42863  -0.42562  -0.41722
 Alpha  occ. eigenvalues --   -0.41667  -0.41016  -0.37774  -0.37087  -0.36106
 Alpha  occ. eigenvalues --   -0.35498  -0.35355  -0.35179  -0.34807  -0.34680
 Alpha  occ. eigenvalues --   -0.34595  -0.34345  -0.34241  -0.33545  -0.33276
 Alpha  occ. eigenvalues --   -0.30415
 Alpha virt. eigenvalues --   -0.16240  -0.14717  -0.13081  -0.12635  -0.12343
 Alpha virt. eigenvalues --   -0.11320  -0.10956  -0.10749  -0.10554  -0.10054
 Alpha virt. eigenvalues --   -0.09086  -0.07571  -0.06978  -0.06353  -0.05994

 Mulliken charges:
               1
     1  P    0.249071
     2  P    0.258418
     3  C   -0.643454
     4  H    0.224942
     5  H    0.233773
     6  C   -0.270261
     7  C   -0.000169
     8  H    0.179969
     9  C   -0.152793
    10  H    0.121582
    11  C   -0.039639
    12  H    0.135719
    13  C   -0.167463
    14  H    0.126875
    15  C    0.137955
    16  C   -0.254007
    17  H    0.150758
    18  H    0.160932
    19  C   -0.138239
    20  C   -0.015337
    21  H    0.141180
    22  C   -0.142270
    23  H    0.122630
    24  C   -0.058448
    25  H    0.133068
    26  C   -0.126286
    27  H    0.129576
    28  C    0.065121
    29  C   -0.253775
    30  H    0.105109
    31  H    0.177548
    32  C   -0.063824
    33  C   -0.039761
    34  H    0.137070
    35  C   -0.134305
    36  H    0.123665
    37  C   -0.070091
    38  H    0.132018
    39  C   -0.106283
    40  H    0.130018
    41  C    0.018731
    42  C   -0.259649
    43  H    0.104635
    44  H    0.178656
    45  C   -0.243551
    46  C    0.005221
    47  H    0.181105
    48  C   -0.149922
    49  H    0.119205
    50  C   -0.060703
    51  H    0.132773
    52  C   -0.110514
    53  H    0.139353
    54  C    0.068067
    55  C   -0.272895
    56  H    0.141139
    57  H    0.163929
    58  Rh  -0.518694
    59  C   -0.067256
    60  C   -0.083423
    61  C   -0.066260
    62  C   -0.081892
    63  C   -0.361130
    64  H    0.206285
    65  H    0.200061
    66  C   -0.225186
    67  C   -0.362893
    68  H    0.207792
    69  C   -0.226240
    70  H    0.199118
    71  H    0.167494
    72  H    0.169803
    73  H    0.171675
    74  H    0.133792
    75  H    0.169742
    76  H    0.167726
    77  H    0.133707
    78  H    0.171527
    79  C   -0.412215
    80  H    0.143250
    81  H    0.138367
    82  H    0.138902
    83  C   -0.381576
    84  H    0.138593
    85  H    0.107160
    86  H    0.145224
    87  C   -0.407788
    88  H    0.144584
    89  H    0.134611
    90  H    0.138812
    91  C   -0.410928
    92  H    0.143444
    93  H    0.138389
    94  H    0.139255
 Sum of Mulliken charges =   1.00000

 Dipole moment (field-independent basis, Debye):
    X=             -0.1588    Y=              0.2707    Z=             -0.1022  Tot=              0.3301
 Quadrupole moment (field-independent basis, Debye-Ang):
   XX=           -233.6635   YY=           -249.6317   ZZ=           -247.4017
   XY=              0.5664   XZ=              2.7855   YZ=              0.2986

 Summary of Natural Population Analysis:

                                       Natural Population
                Natural  -----------------------------------------------
    Atom  No    Charge         Core      Valence    Rydberg      Total
 -----------------------------------------------------------------------
      P    1    1.09285      9.99657     3.85926    0.05133    13.90715
      P    2    1.09164      9.99658     3.86120    0.05059    13.90836
      C    3   -0.98376      1.99941     4.96647    0.01788     6.98376
      H    4    0.25946      0.00000     0.73800    0.00254     0.74054
      H    5    0.26285      0.00000     0.73528    0.00188     0.73715
      C    6   -0.33700      1.99890     4.31343    0.02467     6.33700
      C    7   -0.18737      1.99911     4.17227    0.01598     6.18737
      H    8    0.22015      0.00000     0.77771    0.00213     0.77985
      C    9   -0.20632      1.99918     4.19225    0.01489     6.20632
      H   10    0.22037      0.00000     0.77840    0.00123     0.77963
      C   11   -0.17113      1.99920     4.15710    0.01482     6.17113
      H   12    0.22197      0.00000     0.77687    0.00116     0.77803
      C   13   -0.19656      1.99911     4.18290    0.01455     6.19656
      H   14    0.21680      0.00000     0.78167    0.00153     0.78320
      C   15    0.00605      1.99902     3.97468    0.02024     5.99395
      C   16   -0.42354      1.99937     4.41288    0.01129     6.42354
      H   17    0.21215      0.00000     0.78497    0.00288     0.78785
      H   18    0.22001      0.00000     0.77817    0.00182     0.77999
      C   19   -0.32761      1.99891     4.30648    0.02222     6.32761
      C   20   -0.19597      1.99909     4.18193    0.01496     6.19597
      H   21    0.20680      0.00000     0.79095    0.00225     0.79320
      C   22   -0.20008      1.99918     4.18604    0.01486     6.20008
      H   23    0.22086      0.00000     0.77790    0.00124     0.77914
      C   24   -0.17514      1.99919     4.16106    0.01489     6.17514
      H   25    0.22112      0.00000     0.77770    0.00118     0.77888
      C   26   -0.19916      1.99912     4.18568    0.01437     6.19916
      H   27    0.22018      0.00000     0.77813    0.00169     0.77982
      C   28   -0.00214      1.99902     3.98523    0.01789     6.00214
      C   29   -0.41151      1.99938     4.40207    0.01007     6.41151
      H   30    0.20006      0.00000     0.79737    0.00258     0.79994
      H   31    0.22369      0.00000     0.77387    0.00244     0.77631
      C   32   -0.32399      1.99891     4.30251    0.02258     6.32399
      C   33   -0.19358      1.99909     4.17952    0.01497     6.19358
      H   34    0.20517      0.00000     0.79281    0.00202     0.79483
      C   35   -0.19985      1.99918     4.18584    0.01483     6.19985
      H   36    0.22085      0.00000     0.77791    0.00124     0.77915
      C   37   -0.17541      1.99919     4.16131    0.01491     6.17541
      H   38    0.22125      0.00000     0.77757    0.00117     0.77875
      C   39   -0.20090      1.99911     4.18729    0.01450     6.20090
      H   40    0.22034      0.00000     0.77797    0.00168     0.77966
      C   41   -0.00400      1.99902     3.98681    0.01817     6.00400
      C   42   -0.41264      1.99938     4.40304    0.01022     6.41264
      H   43    0.20056      0.00000     0.79685    0.00259     0.79944
      H   44    0.22271      0.00000     0.77489    0.00241     0.77729
      C   45   -0.33375      1.99891     4.31145    0.02338     6.33375
      C   46   -0.18435      1.99910     4.16976    0.01549     6.18435
      H   47    0.22049      0.00000     0.77741    0.00210     0.77951
      C   48   -0.20867      1.99918     4.19475    0.01475     6.20867
      H   49    0.22023      0.00000     0.77852    0.00125     0.77977
      C   50   -0.16887      1.99920     4.15486    0.01481     6.16887
      H   51    0.22108      0.00000     0.77774    0.00117     0.77892
      C   52   -0.20516      1.99911     4.19153    0.01452     6.20516
      H   53    0.22167      0.00000     0.77666    0.00168     0.77833
      C   54    0.00472      1.99902     3.97754    0.01871     5.99528
      C   55   -0.41605      1.99938     4.40614    0.01053     6.41605
      H   56    0.20175      0.00000     0.79558    0.00267     0.79825
      H   57    0.22324      0.00000     0.77430    0.00246     0.77676
     Rh   58   -0.34601     35.98594     9.33230    0.02776    45.34601
      C   59   -0.18676      1.99907     4.16824    0.01945     6.18676
      C   60   -0.15551      1.99908     4.13696    0.01947     6.15551
      C   61   -0.18642      1.99907     4.16791    0.01945     6.18642
      C   62   -0.15619      1.99908     4.13763    0.01947     6.15619
      C   63   -0.42327      1.99936     4.41197    0.01195     6.42327
      H   64    0.22185      0.00000     0.77590    0.00225     0.77815
      H   65    0.22899      0.00000     0.76881    0.00220     0.77101
      C   66   -0.41734      1.99935     4.40542    0.01257     6.41734
      C   67   -0.42326      1.99936     4.41196    0.01194     6.42326
      H   68    0.22184      0.00000     0.77595    0.00222     0.77816
      C   69   -0.41731      1.99935     4.40540    0.01255     6.41731
      H   70    0.22904      0.00000     0.76876    0.00219     0.77096
      H   71    0.22731      0.00000     0.77119    0.00150     0.77269
      H   72    0.21521      0.00000     0.78280    0.00199     0.78479
      H   73    0.23340      0.00000     0.76470    0.00190     0.76660
      H   74    0.21744      0.00000     0.78094    0.00163     0.78256
      H   75    0.21518      0.00000     0.78284    0.00198     0.78482
      H   76    0.22744      0.00000     0.77108    0.00149     0.77256
      H   77    0.21759      0.00000     0.78079    0.00162     0.78241
      H   78    0.23342      0.00000     0.76469    0.00189     0.76658
      C   79   -0.59257      1.99946     4.58531    0.00780     6.59257
      H   80    0.21756      0.00000     0.78136    0.00108     0.78244
      H   81    0.20673      0.00000     0.79194    0.00133     0.79327
      H   82    0.20501      0.00000     0.79360    0.00139     0.79499
      C   83   -0.57713      1.99945     4.57058    0.00710     6.57713
      H   84    0.20701      0.00000     0.79160    0.00139     0.79299
      H   85    0.19134      0.00000     0.80729    0.00137     0.80866
      H   86    0.21504      0.00000     0.78381    0.00114     0.78496
      C   87   -0.59337      1.99947     4.58613    0.00777     6.59337
      H   88    0.21888      0.00000     0.78006    0.00106     0.78112
      H   89    0.20606      0.00000     0.79255    0.00138     0.79394
      H   90    0.20512      0.00000     0.79347    0.00141     0.79488
      C   91   -0.59264      1.99946     4.58534    0.00784     6.59264
      H   92    0.21769      0.00000     0.78124    0.00108     0.78231
      H   93    0.20685      0.00000     0.79183    0.00133     0.79315
      H   94    0.20523      0.00000     0.79338    0.00139     0.79477
 =======================================================================
   * Total *    1.00000    137.94561   231.21423    0.84017   370.00000

 Normal termination of Gaussian 16 at Wed Jan 22 00:32:31 2025.
