 Gaussian 16, Revision B.01,
 Gaussian 16:  ES64L-G16RevB.01 20-Dec-2017

 ------------------------------------------
 # nmr=giao b3lyp/genecp pop=nbo scfcyc=200
 ------------------------------------------

 ---------
 MB-12_SPE
 ---------
 Symbolic Z-matrix:
 Charge =  1 Multiplicity = 1

                         Standard orientation:
 ---------------------------------------------------------------------
 Center     Atomic      Atomic             Coordinates (Angstroms)
 Number     Number       Type             X           Y           Z
 ---------------------------------------------------------------------
      1         15           0        0.362129    1.719891    0.184641
      2         15           0        1.603812   -0.787497    0.056971
      3          6           0        2.011710    0.948393    0.628321
      4          1           0        2.142760    0.941003    1.709771
      5          1           0        2.886859    1.419044    0.182771
      6          6           0       -0.032453    2.958650    1.547301
      7          1           0        0.832976    3.625822    1.593031
      8          6           0       -0.180792    2.257320    2.902331
      9          1           0       -0.393503    3.000960    3.673251
     10          1           0        0.724049    1.730221    3.206371
     11          1           0       -1.002661    1.539139    2.895491
     12          6           0       -1.278864    3.789659    1.217461
     13          1           0       -2.164793    3.162628    1.097751
     14          1           0       -1.160065    4.384589    0.312781
     15          1           0       -1.479775    4.482488    2.037341
     16          6           0        0.799727    2.688291   -1.379549
     17          1           0        1.425458    1.967222   -1.915369
     18          6           0       -0.404463    2.994940   -2.276109
     19          1           0       -1.112304    3.676849   -1.803289
     20          1           0       -0.937802    2.086669   -2.556009
     21          1           0       -0.059934    3.473830   -3.195329
     22          6           0        1.645816    3.936153   -1.101099
     23          1           0        2.019515    4.340043   -2.044659
     24          1           0        2.512986    3.726854   -0.471819
     25          1           0        1.062365    4.723012   -0.621109
     26          6           0        2.307454   -1.973037    1.340441
     27          1           0        2.027085   -2.958827    0.956591
     28          6           0        1.608693   -1.771587    2.692061
     29          1           0        1.881574   -2.584907    3.367411
     30          1           0        0.522613   -1.754369    2.601481
     31          1           0        1.922162   -0.841337    3.170571
     32          6           0        3.831323   -1.920814    1.497751
     33          1           0        4.176102   -0.921534    1.772901
     34          1           0        4.357664   -2.227094    0.595661
     35          1           0        4.135404   -2.599874    2.297791
     36          6           0        2.475902   -1.077856   -1.596619
     37          1           0        1.800082   -0.581227   -2.298999
     38          6           0        2.479044   -2.574186   -1.941129
     39          1           0        2.795575   -2.709266   -2.977119
     40          1           0        1.491665   -3.027888   -1.840299
     41          1           0        3.173915   -3.134085   -1.313469
     42          6           0        3.866232   -0.453934   -1.758639
     43          1           0        4.601362   -0.885743   -1.080759
     44          1           0        3.861750    0.625946   -1.607479
     45          1           0        4.217872   -0.631594   -2.777809
     46         45           0       -0.732959   -0.378411   -0.083069
     47          6           0       -2.885699    0.055387    0.541301
     48          6           0       -2.754820    0.343187   -0.800319
     49          6           0       -1.548176   -2.299782   -0.982319
     50          6           0       -1.437506   -2.466061    0.383401
     51          1           0       -2.777180    0.883307    1.232551
     52          6           0       -3.537067   -1.187214    1.119411
     53          1           0       -2.593851    1.381347   -1.068219
     54          6           0       -3.139248   -0.544874   -1.956689
     55          6           0       -2.838036   -2.042463   -1.738259
     56          1           0       -0.722286   -2.654741   -1.588469
     57          1           0       -0.557065   -2.984070    0.748081
     58          6           0       -2.546226   -2.337173    1.398321
     59          1           0       -4.332827   -1.523805    0.455351
     60          1           0       -4.025248   -0.916765    2.057101
     61          1           0       -4.202729   -0.410655   -2.190359
     62          1           0       -2.596289   -0.196783   -2.838369
     63          1           0       -2.769676   -2.527233   -2.713469
     64          1           0       -3.667056   -2.525924   -1.222079
     65          1           0       -3.091605   -3.286194    1.473311
     66          1           0       -2.086426   -2.182462    2.376891
 ---------------------------------------------------------------------

 SCF Done:  E(RB3LYP) =  -1619.03960036     A.U. after   15 cycles

      1  P    Isotropic =   306.2634   Anisotropy =    97.6152

      2  P    Isotropic =   300.8999   Anisotropy =    90.9405

      3  C    Isotropic =   151.8343   Anisotropy =    46.3319

      4  H    Isotropic =    28.9217   Anisotropy =     3.7808

      5  H    Isotropic =    29.3620   Anisotropy =     8.7879

      6  C    Isotropic =   149.1225   Anisotropy =    22.5000

      7  H    Isotropic =    29.6648   Anisotropy =     6.0525

      8  C    Isotropic =   164.2873   Anisotropy =    30.4655

      9  H    Isotropic =    30.5224   Anisotropy =    11.8800

     10  H    Isotropic =    30.6437   Anisotropy =     7.5746

     11  H    Isotropic =    30.7180   Anisotropy =     5.6373

     12  C    Isotropic =   165.1044   Anisotropy =    30.2091

     13  H    Isotropic =    31.3455   Anisotropy =     5.0162

     14  H    Isotropic =    30.6834   Anisotropy =     7.8731

     15  H    Isotropic =    30.6186   Anisotropy =    12.2261

     16  C    Isotropic =   142.1918   Anisotropy =    27.5736

     17  H    Isotropic =    29.9726   Anisotropy =     5.5902

     18  C    Isotropic =   162.1752   Anisotropy =    30.1158

     19  H    Isotropic =    30.6144   Anisotropy =     6.2912

     20  H    Isotropic =    30.0726   Anisotropy =     7.4820

     21  H    Isotropic =    30.3660   Anisotropy =    11.2285

     22  C    Isotropic =   168.2557   Anisotropy =    27.2894

     23  H    Isotropic =    30.4631   Anisotropy =    11.9261

     24  H    Isotropic =    30.6214   Anisotropy =     7.8058

     25  H    Isotropic =    30.7656   Anisotropy =     7.9760

     26  C    Isotropic =   149.3697   Anisotropy =    21.6449

     27  H    Isotropic =    29.6884   Anisotropy =     4.4553

     28  C    Isotropic =   163.6334   Anisotropy =    33.0028

     29  H    Isotropic =    30.3931   Anisotropy =    11.4568

     30  H    Isotropic =    30.1644   Anisotropy =     8.4327

     31  H    Isotropic =    30.7819   Anisotropy =     5.7102

     32  C    Isotropic =   164.9845   Anisotropy =    30.3317

     33  H    Isotropic =    31.0224   Anisotropy =     6.6010

     34  H    Isotropic =    30.6436   Anisotropy =     8.5557

     35  H    Isotropic =    30.5688   Anisotropy =    12.1886

     36  C    Isotropic =   146.6686   Anisotropy =    27.0145

     37  H    Isotropic =    29.5490   Anisotropy =     5.3672

     38  C    Isotropic =   167.2238   Anisotropy =    27.2494

     39  H    Isotropic =    30.4119   Anisotropy =    11.6794

     40  H    Isotropic =    30.9154   Anisotropy =     6.7208

     41  H    Isotropic =    30.9022   Anisotropy =     7.7697

     42  C    Isotropic =   166.5438   Anisotropy =    26.8899

     43  H    Isotropic =    30.7983   Anisotropy =     7.8547

     44  H    Isotropic =    30.5823   Anisotropy =     6.8026

     45  H    Isotropic =    30.6221   Anisotropy =    11.7762

     46  Rh   Isotropic =  -317.4397   Anisotropy =   364.7565

     47  C    Isotropic =    78.5345   Anisotropy =   123.2743

     48  C    Isotropic =    79.7976   Anisotropy =   114.9737

     49  C    Isotropic =    78.9109   Anisotropy =   121.4943

     50  C    Isotropic =    79.6817   Anisotropy =   112.9097

     51  H    Isotropic =    26.7078   Anisotropy =     6.0621

     52  C    Isotropic =   153.9605   Anisotropy =    25.7332

     53  H    Isotropic =    26.4247   Anisotropy =     3.9058

     54  C    Isotropic =   148.1884   Anisotropy =    29.7242

     55  C    Isotropic =   154.0141   Anisotropy =    25.4322

     56  H    Isotropic =    26.9036   Anisotropy =     6.9892

     57  H    Isotropic =    26.7369   Anisotropy =     3.7268

     58  C    Isotropic =   147.7891   Anisotropy =    29.4401

     59  H    Isotropic =    29.7867   Anisotropy =     9.4443

     60  H    Isotropic =    29.8188   Anisotropy =    11.3818

     61  H    Isotropic =    29.1331   Anisotropy =    12.5575

     62  H    Isotropic =    29.1747   Anisotropy =     7.4831

     63  H    Isotropic =    29.8384   Anisotropy =    11.6027

     64  H    Isotropic =    29.8027   Anisotropy =     9.4280

     65  H    Isotropic =    29.0913   Anisotropy =    12.4961

     66  H    Isotropic =    29.1271   Anisotropy =     7.1423

 The electronic state is 1-A.
 Alpha  occ. eigenvalues --  -77.23481 -77.23380 -10.30957 -10.30900 -10.30870
 Alpha  occ. eigenvalues --  -10.30714 -10.30713 -10.29668 -10.29579 -10.29554
 Alpha  occ. eigenvalues --  -10.29480 -10.28091 -10.28037 -10.27836 -10.27806
 Alpha  occ. eigenvalues --  -10.27765 -10.27565 -10.27553 -10.27532 -10.27525
 Alpha  occ. eigenvalues --  -10.27506 -10.27446 -10.27303  -6.69531  -6.69428
 Alpha  occ. eigenvalues --   -4.85831  -4.85725  -4.85715  -4.85607  -4.85427
 Alpha  occ. eigenvalues --   -4.85331  -3.31943  -2.08831  -2.08170  -2.05382
 Alpha  occ. eigenvalues --   -0.95066  -0.93456  -0.92339  -0.90249  -0.90110
 Alpha  occ. eigenvalues --   -0.89764  -0.88580  -0.86080  -0.80962  -0.80322
 Alpha  occ. eigenvalues --   -0.80112  -0.80081  -0.80026  -0.78392  -0.76242
 Alpha  occ. eigenvalues --   -0.73715  -0.71138  -0.70652  -0.70309  -0.66517
 Alpha  occ. eigenvalues --   -0.65179  -0.64740  -0.63110  -0.60790  -0.59109
 Alpha  occ. eigenvalues --   -0.58744  -0.58196  -0.57733  -0.57259  -0.56721
 Alpha  occ. eigenvalues --   -0.56411  -0.55747  -0.55202  -0.54211  -0.53794
 Alpha  occ. eigenvalues --   -0.53177  -0.53150  -0.53052  -0.52649  -0.51998
 Alpha  occ. eigenvalues --   -0.51859  -0.51300  -0.50278  -0.50230  -0.49698
 Alpha  occ. eigenvalues --   -0.49650  -0.48769  -0.48504  -0.48387  -0.47377
 Alpha  occ. eigenvalues --   -0.46928  -0.46867  -0.46713  -0.46510  -0.46480
 Alpha  occ. eigenvalues --   -0.46287  -0.46070  -0.45915  -0.45700  -0.43887
 Alpha  occ. eigenvalues --   -0.43688  -0.43018  -0.42466  -0.42032  -0.41843
 Alpha  occ. eigenvalues --   -0.40984  -0.37065  -0.36845  -0.35477  -0.35022
 Alpha  occ. eigenvalues --   -0.34190  -0.31191
 Alpha virt. eigenvalues --   -0.16696  -0.14347  -0.09992  -0.09328  -0.09000
 Alpha virt. eigenvalues --   -0.08747  -0.07795  -0.07420  -0.06813  -0.05814
 Alpha virt. eigenvalues --   -0.05546  -0.04989  -0.04864  -0.04428  -0.03904

 Mulliken charges:
               1
     1  P    0.384773
     2  P    0.401701
     3  C   -0.615119
     4  H    0.198222
     5  H    0.205535
     6  C   -0.175700
     7  H    0.183304
     8  C   -0.377609
     9  H    0.163429
    10  H    0.123072
    11  H    0.126884
    12  C   -0.406176
    13  H    0.139197
    14  H    0.141838
    15  H    0.158806
    16  C   -0.164546
    17  H    0.138222
    18  C   -0.414749
    19  H    0.141915
    20  H    0.145796
    21  H    0.157081
    22  C   -0.373644
    23  H    0.157082
    24  H    0.136459
    25  H    0.142892
    26  C   -0.222124
    27  H    0.177292
    28  C   -0.394615
    29  H    0.163644
    30  H    0.139483
    31  H    0.127307
    32  C   -0.368292
    33  H    0.136769
    34  H    0.137506
    35  H    0.154593
    36  C   -0.163621
    37  H    0.165748
    38  C   -0.420784
    39  H    0.159878
    40  H    0.140516
    41  H    0.150191
    42  C   -0.365512
    43  H    0.146485
    44  H    0.124372
    45  H    0.154226
    46  Rh  -0.463763
    47  C   -0.015766
    48  C   -0.117664
    49  C   -0.028848
    50  C   -0.098569
    51  H    0.165400
    52  C   -0.345967
    53  H    0.195733
    54  C   -0.226020
    55  C   -0.345591
    56  H    0.171321
    57  H    0.187344
    58  C   -0.229611
    59  H    0.170765
    60  H    0.170069
    61  H    0.173273
    62  H    0.132354
    63  H    0.170571
    64  H    0.168515
    65  H    0.173369
    66  H    0.131354
 Sum of Mulliken charges =   1.00000

 Dipole moment (field-independent basis, Debye):
    X=              1.7137    Y=              0.6155    Z=              0.0403  Tot=              1.8213
 Quadrupole moment (field-independent basis, Debye-Ang):
   XX=           -148.4275   YY=           -149.4382   ZZ=           -161.8059
   XY=             -0.0489   XZ=             -0.5541   YZ=              0.4357

 Summary of Natural Population Analysis:

                                       Natural Population
                Natural  -----------------------------------------------
    Atom  No    Charge         Core      Valence    Rydberg      Total
 -----------------------------------------------------------------------
      P    1    1.08829      9.99687     3.86869    0.04614    13.91171
      P    2    1.09291      9.99683     3.86257    0.04768    13.90709
      C    3   -1.00723      1.99942     4.98993    0.01788     7.00723
      H    4    0.25806      0.00000     0.73964    0.00230     0.74194
      H    5    0.24950      0.00000     0.74788    0.00262     0.75050
      C    6   -0.46878      1.99941     4.45451    0.01486     6.46878
      H    7    0.22395      0.00000     0.77369    0.00236     0.77605
      C    8   -0.59078      1.99942     4.58417    0.00719     6.59078
      H    9    0.22572      0.00000     0.77278    0.00149     0.77428
      H   10    0.20333      0.00000     0.79510    0.00157     0.79667
      H   11    0.21074      0.00000     0.78776    0.00150     0.78926
      C   12   -0.59723      1.99941     4.59036    0.00746     6.59723
      H   13    0.20511      0.00000     0.79338    0.00151     0.79489
      H   14    0.20913      0.00000     0.78912    0.00176     0.79087
      H   15    0.22646      0.00000     0.77204    0.00150     0.77354
      C   16   -0.45473      1.99941     4.43964    0.01568     6.45473
      H   17    0.21602      0.00000     0.78182    0.00217     0.78398
      C   18   -0.59470      1.99941     4.58800    0.00729     6.59470
      H   19    0.20573      0.00000     0.79262    0.00165     0.79427
      H   20    0.21351      0.00000     0.78500    0.00148     0.78649
      H   21    0.22269      0.00000     0.77578    0.00153     0.77731
      C   22   -0.60392      1.99941     4.59620    0.00831     6.60392
      H   23    0.22651      0.00000     0.77202    0.00147     0.77349
      H   24    0.20612      0.00000     0.79218    0.00170     0.79388
      H   25    0.20887      0.00000     0.78956    0.00157     0.79113
      C   26   -0.46831      1.99940     4.45482    0.01409     6.46831
      H   27    0.22481      0.00000     0.77335    0.00184     0.77519
      C   28   -0.59285      1.99941     4.58589    0.00755     6.59285
      H   29    0.22583      0.00000     0.77272    0.00146     0.77417
      H   30    0.21703      0.00000     0.78128    0.00169     0.78297
      H   31    0.20029      0.00000     0.79796    0.00175     0.79971
      C   32   -0.59941      1.99941     4.59184    0.00816     6.59941
      H   33    0.20509      0.00000     0.79329    0.00162     0.79491
      H   34    0.20922      0.00000     0.78909    0.00168     0.79078
      H   35    0.22570      0.00000     0.77280    0.00150     0.77430
      C   36   -0.46129      1.99940     4.44668    0.01520     6.46129
      H   37    0.22471      0.00000     0.77344    0.00185     0.77529
      C   38   -0.59628      1.99941     4.58928    0.00759     6.59628
      H   39    0.22684      0.00000     0.77170    0.00146     0.77316
      H   40    0.20737      0.00000     0.79118    0.00146     0.79263
      H   41    0.20767      0.00000     0.79074    0.00158     0.79233
      C   42   -0.59861      1.99941     4.59132    0.00789     6.59861
      H   43    0.21008      0.00000     0.78825    0.00167     0.78992
      H   44    0.20256      0.00000     0.79590    0.00154     0.79744
      H   45    0.22535      0.00000     0.77315    0.00150     0.77465
     Rh   46   -0.38060     35.98622     9.36841    0.02597    45.38060
      C   47   -0.16960      1.99908     4.15063    0.01989     6.16960
      C   48   -0.17185      1.99909     4.15264    0.02012     6.17185
      C   49   -0.17254      1.99908     4.15376    0.01970     6.17254
      C   50   -0.16709      1.99909     4.14790    0.02010     6.16709
      H   51    0.22026      0.00000     0.77744    0.00230     0.77974
      C   52   -0.42474      1.99936     4.41325    0.01213     6.42474
      H   53    0.22422      0.00000     0.77377    0.00201     0.77578
      C   54   -0.41783      1.99935     4.40563    0.01285     6.41783
      C   55   -0.42360      1.99936     4.41222    0.01202     6.42360
      H   56    0.22055      0.00000     0.77725    0.00221     0.77945
      H   57    0.21997      0.00000     0.77806    0.00197     0.78003
      C   58   -0.41760      1.99935     4.40543    0.01282     6.41760
      H   59    0.21625      0.00000     0.78185    0.00190     0.78375
      H   60    0.22912      0.00000     0.76945    0.00143     0.77088
      H   61    0.23445      0.00000     0.76372    0.00183     0.76555
      H   62    0.21533      0.00000     0.78292    0.00175     0.78467
      H   63    0.22929      0.00000     0.76929    0.00142     0.77071
      H   64    0.21592      0.00000     0.78218    0.00190     0.78408
      H   65    0.23419      0.00000     0.76399    0.00182     0.76581
      H   66    0.21481      0.00000     0.78340    0.00179     0.78519
 =======================================================================
   * Total *    1.00000     97.96599   143.57233    0.46167   242.00000

 Normal termination of Gaussian 16 at Tue Jan 21 01:38:50 2025.
