 Gaussian 16, Revision B.01,
 Gaussian 16:  ES64L-G16RevB.01 20-Dec-2017

 ------------------------------------------
 # nmr=giao b3lyp/genecp pop=nbo scfcyc=200
 ------------------------------------------

 ----------
 MB-112_SPE
 ----------
 Symbolic Z-matrix:
 Charge =  1 Multiplicity = 1

                         Standard orientation:
 ---------------------------------------------------------------------
 Center     Atomic      Atomic             Coordinates (Angstroms)
 Number     Number       Type             X           Y           Z
 ---------------------------------------------------------------------
      1         15           0       -1.394190   -0.070681   -0.347509
      2          6           0       -2.768989   -1.068783   -1.054149
      3          6           0       -2.508558   -2.294962   -1.672759
      4          6           0       -3.549117   -3.083923   -2.139809
      5          6           0       -4.887247   -2.691315   -1.994699
      6          6           0       -5.137969   -1.470185   -1.353379
      7          6           0       -4.102389   -0.674264   -0.890179
      8          1           0       -4.336790    0.265946   -0.408379
      9          1           0       -6.156019   -1.131096   -1.213049
     10          1           0       -3.323946   -4.024943   -2.627809
     11          1           0       -1.491947   -2.648381   -1.796379
     12          6           0       -2.020731    1.648948   -0.247579
     13          6           0       -2.062712    2.305838    0.981651
     14          6           0       -2.535583    3.609528    1.065981
     15          6           0       -2.977444    4.299167   -0.069189
     16          6           0       -2.927193    3.628337   -1.303009
     17          6           0       -2.459762    2.329868   -1.391919
     18          1           0       -2.446712    1.840528   -2.358799
     19          1           0       -3.258194    4.127477   -2.204289
     20          1           0       -2.562464    4.104508    2.029561
     21          1           0       -1.718392    1.800258    1.875221
     22          6           0       -0.001310   -0.036380   -1.603869
     23         15           0        1.392670   -0.060919   -0.346609
     24          6           0        2.752691   -1.092178   -1.033599
     25          6           0        4.085671   -0.666986   -1.003649
     26          6           0        5.101331   -1.492385   -1.460839
     27          6           0        4.829703   -2.772426   -1.962879
     28          6           0        3.492053   -3.193947   -1.973909
     29          6           0        2.472822   -2.376568   -1.510289
     30          1           0        1.456423   -2.752629   -1.516839
     31          1           0        3.251874   -4.181547   -2.349939
     32          1           0        6.120181   -1.129314   -1.425849
     33          1           0        4.335810    0.316864   -0.629529
     34          6           0        2.030459    1.656512   -0.283109
     35          6           0        2.456778    2.316312   -1.444729
     36          6           0        2.929867    3.614503   -1.385039
     37          6           0        2.997976    4.307123   -0.164329
     38          6           0        2.565747    3.640092    0.987871
     39          6           0        2.087778    2.336772    0.932721
     40          1           0        1.749018    1.851892    1.839371
     41          1           0        2.603786    4.152792    1.941741
     42          1           0        3.249586    4.096683   -2.299529
     43          1           0        2.428198    1.811102   -2.403069
     44          1           0        0.005741   -0.962850   -2.176859
     45          1           0       -0.004621    0.808410   -2.291379
     46         45           0        0.003041   -0.874750    1.381631
     47          6           0       -1.417449   -1.288121    3.112451
     48          6           0       -1.453628   -2.358171    2.242031
     49          6           0        1.458942   -2.287349    2.418751
     50          6           0        1.495041   -1.064659    3.056341
     51          6           0       -0.668669   -1.248491    4.431941
     52          1           0       -2.189419   -0.535432    2.989961
     53          1           0       -2.264688   -2.384032    1.522241
     54          6           0       -0.704267   -3.660671    2.380051
     55          6           0        0.733813   -3.521509    2.922661
     56          1           0        2.210112   -2.465628    1.657461
     57          6           0        0.763641   -0.680419    4.319191
     58          1           0        2.299310   -0.390318    2.778491
     59          1           0       -1.231139   -0.627501    5.131111
     60          1           0       -0.647098   -2.245901    4.870591
     61          1           0       -1.276316   -4.348221    3.015811
     62          1           0       -0.670806   -4.127721    1.393471
     63          1           0        0.730883   -3.523709    4.012481
     64          1           0        1.303554   -4.402659    2.622941
     65          1           0        0.717620    0.410541    4.357521
     66          1           0        1.351151   -0.982769    5.195061
     67          6           0       -5.947477   -3.566526   -2.511109
     68          1           0       -5.595026   -4.494505   -2.951759
     69          6           0       -7.260297   -3.334947   -2.495249
     70          1           0       -7.953526   -4.055677   -2.907999
     71          1           0       -7.696738   -2.434197   -2.081369
     72          6           0       -3.468075    5.675617    0.078361
     73          1           0       -3.435046    6.062127    1.092721
     74          6           0       -3.938266    6.469436   -0.884009
     75          1           0       -4.008876    6.164206   -1.920799
     76          1           0       -4.276107    7.471896   -0.657379
     77          6           0        5.867803   -3.681475   -2.465749
     78          1           0        5.501194   -4.647285   -2.800979
     79          6           0        7.176233   -3.440153   -2.550269
     80          1           0        7.852144   -4.189213   -2.940689
     81          1           0        7.625842   -2.504063   -2.242499
     82          6           0        3.495815    5.683923   -0.047379
     83          1           0        3.464414    6.093293    0.958021
     84          6           0        3.972054    6.452734   -1.026899
     85          1           0        4.043104    6.123164   -2.056179
     86          1           0        4.315363    7.458164   -0.822749
 ---------------------------------------------------------------------

 SCF Done:  E(RB3LYP) =  -2381.31472451     A.U. after   18 cycles

      1  P    Isotropic =   317.3466   Anisotropy =   106.1684

      2  C    Isotropic =    45.6623   Anisotropy =   162.5698

      3  C    Isotropic =    49.4249   Anisotropy =   181.1665

      4  C    Isotropic =    48.4629   Anisotropy =   164.1433

      5  C    Isotropic =    35.5824   Anisotropy =   201.9877

      6  C    Isotropic =    55.5851   Anisotropy =   183.1284

      7  C    Isotropic =    47.3438   Anisotropy =   187.6619

      8  H    Isotropic =    25.2053   Anisotropy =    12.8933

      9  H    Isotropic =    24.0348   Anisotropy =     9.5011

     10  H    Isotropic =    24.2760   Anisotropy =     7.6984

     11  H    Isotropic =    23.8787   Anisotropy =    10.5435

     12  C    Isotropic =    48.8982   Anisotropy =   168.2424

     13  C    Isotropic =    40.5564   Anisotropy =   178.7179

     14  C    Isotropic =    49.7294   Anisotropy =   163.1807

     15  C    Isotropic =    34.3869   Anisotropy =   206.2052

     16  C    Isotropic =    55.0632   Anisotropy =   185.5234

     17  C    Isotropic =    47.3209   Anisotropy =   186.2278

     18  H    Isotropic =    24.6867   Anisotropy =    10.8648

     19  H    Isotropic =    24.0021   Anisotropy =     8.3243

     20  H    Isotropic =    24.6229   Anisotropy =     7.5127

     21  H    Isotropic =    23.8089   Anisotropy =     9.7150

     22  C    Isotropic =   126.9074   Anisotropy =    44.6627

     23  P    Isotropic =   318.9459   Anisotropy =   110.4051

     24  C    Isotropic =    45.4685   Anisotropy =   161.6807

     25  C    Isotropic =    47.2059   Anisotropy =   187.7556

     26  C    Isotropic =    55.7658   Anisotropy =   182.3490

     27  C    Isotropic =    35.5613   Anisotropy =   202.4198

     28  C    Isotropic =    48.3377   Anisotropy =   163.9508

     29  C    Isotropic =    48.6391   Anisotropy =   181.2073

     30  H    Isotropic =    23.8119   Anisotropy =    10.5134

     31  H    Isotropic =    24.2956   Anisotropy =     7.8351

     32  H    Isotropic =    24.0391   Anisotropy =     9.5327

     33  H    Isotropic =    25.1536   Anisotropy =    12.9875

     34  C    Isotropic =    49.1370   Anisotropy =   167.3027

     35  C    Isotropic =    47.0454   Anisotropy =   186.3026

     36  C    Isotropic =    55.1338   Anisotropy =   185.3749

     37  C    Isotropic =    34.4203   Anisotropy =   206.1724

     38  C    Isotropic =    49.4675   Anisotropy =   163.6140

     39  C    Isotropic =    41.2149   Anisotropy =   179.0413

     40  H    Isotropic =    23.8775   Anisotropy =     9.4703

     41  H    Isotropic =    24.6063   Anisotropy =     7.5423

     42  H    Isotropic =    23.9573   Anisotropy =     8.3058

     43  H    Isotropic =    24.6266   Anisotropy =    10.8323

     44  H    Isotropic =    27.4432   Anisotropy =     2.7360

     45  H    Isotropic =    28.2237   Anisotropy =     8.3002

     46  Rh   Isotropic =  -311.1337   Anisotropy =   338.5240

     47  C    Isotropic =    81.3174   Anisotropy =   117.1181

     48  C    Isotropic =    71.6710   Anisotropy =   124.3995

     49  C    Isotropic =    73.6285   Anisotropy =   128.9775

     50  C    Isotropic =    79.6240   Anisotropy =   111.6806

     51  C    Isotropic =   154.1573   Anisotropy =    24.8449

     52  H    Isotropic =    27.0263   Anisotropy =     6.9594

     53  H    Isotropic =    27.0170   Anisotropy =     4.4020

     54  C    Isotropic =   147.6024   Anisotropy =    29.2610

     55  C    Isotropic =   153.8046   Anisotropy =    25.0990

     56  H    Isotropic =    27.3883   Anisotropy =     5.4967

     57  C    Isotropic =   147.9518   Anisotropy =    29.8161

     58  H    Isotropic =    26.5332   Anisotropy =     4.6423

     59  H    Isotropic =    29.7881   Anisotropy =    11.8127

     60  H    Isotropic =    29.8172   Anisotropy =     9.4112

     61  H    Isotropic =    29.3003   Anisotropy =    12.1950

     62  H    Isotropic =    29.1621   Anisotropy =     7.3350

     63  H    Isotropic =    29.8591   Anisotropy =     9.4671

     64  H    Isotropic =    29.9901   Anisotropy =    10.8609

     65  H    Isotropic =    28.9445   Anisotropy =     8.5412

     66  H    Isotropic =    29.0419   Anisotropy =    12.6391

     67  C    Isotropic =    43.1570   Anisotropy =   144.7190

     68  H    Isotropic =    25.0310   Anisotropy =     7.2979

     69  C    Isotropic =    60.9366   Anisotropy =   165.5488

     70  H    Isotropic =    26.0922   Anisotropy =     5.1864

     71  H    Isotropic =    25.5428   Anisotropy =     7.1896

     72  C    Isotropic =    42.9519   Anisotropy =   145.7005

     73  H    Isotropic =    25.1311   Anisotropy =     7.3096

     74  C    Isotropic =    60.8068   Anisotropy =   166.3458

     75  H    Isotropic =    25.5826   Anisotropy =     7.3062

     76  H    Isotropic =    26.1425   Anisotropy =     5.2611

     77  C    Isotropic =    43.1559   Anisotropy =   144.6354

     78  H    Isotropic =    25.0427   Anisotropy =     7.3774

     79  C    Isotropic =    60.9464   Anisotropy =   165.5122

     80  H    Isotropic =    26.0952   Anisotropy =     5.2164

     81  H    Isotropic =    25.5367   Anisotropy =     7.1994

     82  C    Isotropic =    42.9577   Anisotropy =   145.6206

     83  H    Isotropic =    25.1237   Anisotropy =     7.3185

     84  C    Isotropic =    60.7480   Anisotropy =   166.3578

     85  H    Isotropic =    25.5607   Anisotropy =     7.3138

     86  H    Isotropic =    26.1303   Anisotropy =     5.2668

 The electronic state is 1-A.
 Alpha  occ. eigenvalues --  -77.23448 -77.23439 -10.29888 -10.29144 -10.29118
 Alpha  occ. eigenvalues --  -10.29036 -10.28984 -10.28758 -10.28707 -10.28641
 Alpha  occ. eigenvalues --  -10.28475 -10.28460 -10.28428 -10.28166 -10.28162
 Alpha  occ. eigenvalues --  -10.28146 -10.28109 -10.28103 -10.28095 -10.28053
 Alpha  occ. eigenvalues --  -10.28042 -10.27770 -10.27747 -10.27322 -10.27271
 Alpha  occ. eigenvalues --  -10.27228 -10.27222 -10.27190 -10.27185 -10.27184
 Alpha  occ. eigenvalues --  -10.27148 -10.27039 -10.27021 -10.26998 -10.26996
 Alpha  occ. eigenvalues --  -10.26282 -10.26260 -10.26048 -10.26048 -10.25296
 Alpha  occ. eigenvalues --  -10.25273 -10.25025 -10.25024  -6.69415  -6.69408
 Alpha  occ. eigenvalues --   -4.85699  -4.85693  -4.85638  -4.85631  -4.85320
 Alpha  occ. eigenvalues --   -4.85311  -3.31308  -2.08198  -2.07517  -2.04793
 Alpha  occ. eigenvalues --   -0.96858  -0.96693  -0.96218  -0.96201  -0.94144
 Alpha  occ. eigenvalues --   -0.90532  -0.89497  -0.88851  -0.88458  -0.88422
 Alpha  occ. eigenvalues --   -0.87722  -0.86432  -0.85143  -0.85102  -0.84947
 Alpha  occ. eigenvalues --   -0.84928  -0.83496  -0.81996  -0.81923  -0.81661
 Alpha  occ. eigenvalues --   -0.80041  -0.77521  -0.75584  -0.73793  -0.71817
 Alpha  occ. eigenvalues --   -0.71750  -0.71321  -0.71241  -0.70778  -0.70651
 Alpha  occ. eigenvalues --   -0.70282  -0.67548  -0.66986  -0.65656  -0.65475
 Alpha  occ. eigenvalues --   -0.65437  -0.65397  -0.65356  -0.62146  -0.60681
 Alpha  occ. eigenvalues --   -0.60307  -0.60116  -0.59645  -0.58885  -0.57450
 Alpha  occ. eigenvalues --   -0.57439  -0.56739  -0.56697  -0.56338  -0.56100
 Alpha  occ. eigenvalues --   -0.55730  -0.55136  -0.55019  -0.54811  -0.54626
 Alpha  occ. eigenvalues --   -0.54155  -0.53381  -0.53159  -0.52714  -0.52548
 Alpha  occ. eigenvalues --   -0.52318  -0.52313  -0.52254  -0.52033  -0.51856
 Alpha  occ. eigenvalues --   -0.51634  -0.50610  -0.50506  -0.50106  -0.49185
 Alpha  occ. eigenvalues --   -0.48646  -0.48415  -0.47983  -0.47824  -0.47706
 Alpha  occ. eigenvalues --   -0.47515  -0.47329  -0.46161  -0.45726  -0.45436
 Alpha  occ. eigenvalues --   -0.45368  -0.45279  -0.44642  -0.44495  -0.44310
 Alpha  occ. eigenvalues --   -0.43901  -0.43476  -0.43457  -0.43142  -0.43009
 Alpha  occ. eigenvalues --   -0.42988  -0.42826  -0.42619  -0.41410  -0.40173
 Alpha  occ. eigenvalues --   -0.39932  -0.39745  -0.39079  -0.36798  -0.36310
 Alpha  occ. eigenvalues --   -0.36127  -0.35892  -0.35574  -0.35433  -0.34960
 Alpha  occ. eigenvalues --   -0.34424  -0.33573  -0.32609  -0.32316  -0.32222
 Alpha  occ. eigenvalues --   -0.31793  -0.30367
 Alpha virt. eigenvalues --   -0.16186  -0.15296  -0.14852  -0.14514  -0.14291
 Alpha virt. eigenvalues --   -0.12060  -0.11996  -0.11583  -0.10518  -0.10288
 Alpha virt. eigenvalues --   -0.09026  -0.07442  -0.07181  -0.06563  -0.06408

 Mulliken charges:
               1
     1  P    0.311213
     2  C   -0.184906
     3  C   -0.025110
     4  C   -0.171819
     5  C    0.117997
     6  C   -0.104331
     7  C   -0.057811
     8  H    0.154597
     9  H    0.120942
    10  H    0.123113
    11  H    0.127055
    12  C   -0.223682
    13  C    0.002381
    14  C   -0.163280
    15  C    0.114799
    16  C   -0.085591
    17  C   -0.086088
    18  H    0.139930
    19  H    0.122378
    20  H    0.122698
    21  H    0.131514
    22  C   -0.583892
    23  P    0.278328
    24  C   -0.175188
    25  C   -0.067380
    26  C   -0.102379
    27  C    0.118280
    28  C   -0.173469
    29  C   -0.022555
    30  H    0.138710
    31  H    0.123474
    32  H    0.120911
    33  H    0.156052
    34  C   -0.198307
    35  C   -0.091824
    36  C   -0.084908
    37  C    0.117296
    38  C   -0.168593
    39  C   -0.001919
    40  H    0.140889
    41  H    0.122719
    42  H    0.122741
    43  H    0.141698
    44  H    0.204611
    45  H    0.210724
    46  Rh  -0.502291
    47  C   -0.005003
    48  C   -0.113980
    49  C   -0.029560
    50  C   -0.084608
    51  C   -0.347997
    52  H    0.174555
    53  H    0.218656
    54  C   -0.228216
    55  C   -0.356215
    56  H    0.210060
    57  C   -0.223448
    58  H    0.181199
    59  H    0.168385
    60  H    0.166656
    61  H    0.171032
    62  H    0.129260
    63  H    0.166262
    64  H    0.168245
    65  H    0.127025
    66  H    0.171525
    67  C   -0.187522
    68  H    0.122894
    69  C   -0.189061
    70  H    0.134891
    71  H    0.126185
    72  C   -0.186095
    73  H    0.123084
    74  C   -0.191960
    75  H    0.125941
    76  H    0.135248
    77  C   -0.187869
    78  H    0.122300
    79  C   -0.187782
    80  H    0.134777
    81  H    0.126265
    82  C   -0.187161
    83  H    0.123381
    84  C   -0.192446
    85  H    0.125909
    86  H    0.135464
 Sum of Mulliken charges =   1.00000

 Dipole moment (field-independent basis, Debye):
    X=              0.0139    Y=             -0.0271    Z=              0.1802  Tot=              0.1828
 Quadrupole moment (field-independent basis, Debye-Ang):
   XX=           -219.5233   YY=           -215.4960   ZZ=           -251.5402
   XY=              0.2165   XZ=             -0.5830   YZ=              3.4060

 Summary of Natural Population Analysis:

                                       Natural Population
                Natural  -----------------------------------------------
    Atom  No    Charge         Core      Valence    Rydberg      Total
 -----------------------------------------------------------------------
      P    1    1.12453      9.99647     3.82846    0.05055    13.87547
      C    2   -0.34765      1.99899     4.32561    0.02304     6.34765
      C    3   -0.19299      1.99909     4.17868    0.01522     6.19299
      C    4   -0.17439      1.99915     4.16129    0.01395     6.17439
      C    5   -0.04790      1.99909     4.03101    0.01780     6.04790
      C    6   -0.17088      1.99911     4.15793    0.01384     6.17088
      C    7   -0.18780      1.99910     4.17358    0.01512     6.18780
      H    8    0.22338      0.00000     0.77487    0.00175     0.77662
      H    9    0.21567      0.00000     0.78271    0.00162     0.78433
      H   10    0.21655      0.00000     0.78211    0.00134     0.78345
      H   11    0.20483      0.00000     0.79302    0.00215     0.79517
      C   12   -0.35693      1.99900     4.33433    0.02360     6.35693
      C   13   -0.17263      1.99909     4.15845    0.01509     6.17263
      C   14   -0.17942      1.99914     4.16593    0.01435     6.17942
      C   15   -0.04107      1.99909     4.02447    0.01751     6.04107
      C   16   -0.17419      1.99911     4.16127    0.01381     6.17419
      C   17   -0.18254      1.99910     4.16765    0.01579     6.18254
      H   18    0.21539      0.00000     0.78258    0.00203     0.78461
      H   19    0.21557      0.00000     0.78282    0.00161     0.78443
      H   20    0.21474      0.00000     0.78389    0.00137     0.78526
      H   21    0.21915      0.00000     0.77889    0.00196     0.78085
      C   22   -0.96332      1.99942     4.94574    0.01816     6.96332
      P   23    1.12334      9.99648     3.82854    0.05164    13.87666
      C   24   -0.34742      1.99899     4.32528    0.02314     6.34742
      C   25   -0.18684      1.99910     4.17262    0.01512     6.18684
      C   26   -0.17121      1.99911     4.15826    0.01384     6.17121
      C   27   -0.04753      1.99909     4.03064    0.01780     6.04753
      C   28   -0.17512      1.99915     4.16203    0.01395     6.17512
      C   29   -0.19258      1.99909     4.17841    0.01508     6.19258
      H   30    0.20683      0.00000     0.79111    0.00206     0.79317
      H   31    0.21628      0.00000     0.78238    0.00134     0.78372
      H   32    0.21553      0.00000     0.78286    0.00161     0.78447
      H   33    0.22385      0.00000     0.77440    0.00175     0.77615
      C   34   -0.35549      1.99900     4.33267    0.02382     6.35549
      C   35   -0.18515      1.99911     4.16960    0.01644     6.18515
      C   36   -0.17470      1.99911     4.16158    0.01401     6.17470
      C   37   -0.04098      1.99909     4.02431    0.01759     6.04098
      C   38   -0.17903      1.99914     4.16537    0.01452     6.17903
      C   39   -0.17335      1.99910     4.15866    0.01559     6.17335
      H   40    0.21742      0.00000     0.78047    0.00211     0.78258
      H   41    0.21493      0.00000     0.78371    0.00136     0.78507
      H   42    0.21566      0.00000     0.78274    0.00160     0.78434
      H   43    0.21533      0.00000     0.78262    0.00205     0.78467
      H   44    0.25643      0.00000     0.74196    0.00161     0.74357
      H   45    0.25685      0.00000     0.74128    0.00186     0.74315
     Rh   46   -0.41004     35.98582     9.39394    0.03028    45.41004
      C   47   -0.18585      1.99906     4.16725    0.01954     6.18585
      C   48   -0.14883      1.99907     4.12989    0.01987     6.14883
      C   49   -0.15723      1.99906     4.13888    0.01929     6.15723
      C   50   -0.17457      1.99907     4.15557    0.01993     6.17457
      C   51   -0.42230      1.99936     4.41130    0.01165     6.42230
      H   52    0.22537      0.00000     0.77267    0.00196     0.77463
      H   53    0.23221      0.00000     0.76582    0.00197     0.76779
      C   54   -0.41788      1.99935     4.40595    0.01258     6.41788
      C   55   -0.42439      1.99936     4.41321    0.01182     6.42439
      H   56    0.23153      0.00000     0.76647    0.00200     0.76847
      C   57   -0.41879      1.99936     4.40716    0.01227     6.41879
      H   58    0.22545      0.00000     0.77259    0.00196     0.77455
      H   59    0.22772      0.00000     0.77077    0.00151     0.77228
      H   60    0.21483      0.00000     0.78322    0.00195     0.78517
      H   61    0.23311      0.00000     0.76500    0.00190     0.76689
      H   62    0.21529      0.00000     0.78311    0.00160     0.78471
      H   63    0.21431      0.00000     0.78371    0.00198     0.78569
      H   64    0.22850      0.00000     0.77005    0.00145     0.77150
      H   65    0.21584      0.00000     0.78269    0.00148     0.78416
      H   66    0.23337      0.00000     0.76469    0.00193     0.76663
      C   67   -0.20833      1.99916     4.19315    0.01602     6.20833
      H   68    0.20357      0.00000     0.79454    0.00190     0.79643
      C   69   -0.32322      1.99921     4.31289    0.01112     6.32322
      H   70    0.20804      0.00000     0.79064    0.00132     0.79196
      H   71    0.18682      0.00000     0.81159    0.00159     0.81318
      C   72   -0.20838      1.99916     4.19325    0.01597     6.20838
      H   73    0.20418      0.00000     0.79418    0.00164     0.79582
      C   74   -0.32212      1.99921     4.31183    0.01108     6.32212
      H   75    0.18674      0.00000     0.81167    0.00159     0.81326
      H   76    0.20817      0.00000     0.79052    0.00132     0.79183
      C   77   -0.20842      1.99916     4.19324    0.01602     6.20842
      H   78    0.20339      0.00000     0.79471    0.00190     0.79661
      C   79   -0.32308      1.99921     4.31274    0.01112     6.32308
      H   80    0.20799      0.00000     0.79068    0.00132     0.79201
      H   81    0.18687      0.00000     0.81154    0.00159     0.81313
      C   82   -0.20838      1.99916     4.19328    0.01594     6.20838
      H   83    0.20434      0.00000     0.79404    0.00163     0.79566
      C   84   -0.32196      1.99921     4.31167    0.01108     6.32196
      H   85    0.18671      0.00000     0.81170    0.00159     0.81329
      H   86    0.20826      0.00000     0.79042    0.00132     0.79174
 =======================================================================
   * Total *    1.00000    137.94351   223.19899    0.85750   362.00000

 Normal termination of Gaussian 16 at Tue Jan 21 23:48:38 2025.
