 Gaussian 16, Revision B.01,
 Gaussian 16:  ES64L-G16RevB.01 20-Dec-2017

 ------------------------------------------
 # nmr=giao b3lyp/genecp pop=nbo scfcyc=200
 ------------------------------------------

 ----------
 MB-127_SPE
 ----------
 Symbolic Z-matrix:
 Charge =  1 Multiplicity = 1

                         Standard orientation:
 ---------------------------------------------------------------------
 Center     Atomic      Atomic             Coordinates (Angstroms)
 Number     Number       Type             X           Y           Z
 ---------------------------------------------------------------------
      1          6           0        2.360880    1.809730   -0.588410
      2         16           0        4.019440    2.017250   -0.010810
      3          6           0        4.015900    3.637260   -0.673900
      4          6           0        4.986730    4.619750   -0.704300
      5          6           0        4.629050    5.684120   -1.285590
      6          6           0        3.483580    5.985740   -1.873380
      7          6           0        2.559820    5.129990   -1.878600
      8          6           0        2.691940    3.873660   -1.303080
      9          7           0        1.836130    2.816130   -1.205990
     10          6           0        2.521720   -1.054110   -0.733390
     11         16           0        2.701080   -1.618720   -2.408280
     12          6           0        3.956160   -2.708860   -1.843340
     13          6           0        4.713000   -3.625950   -2.568900
     14          6           0        5.656880   -4.371510   -1.879900
     15          6           0        5.845360   -4.213640   -0.497840
     16          6           0        5.091930   -3.306730    0.223150
     17          6           0        4.133080   -2.542640   -0.452180
     18          7           0        3.302070   -1.606740    0.134880
     19         15           0        1.382320    0.289210   -0.223480
     20          6           0       -0.038520    0.364990   -1.423840
     21         15           0       -1.354810   -0.045330   -0.167700
     22          6           0       -2.648260    1.231650   -0.456730
     23         16           0       -4.237100    1.143670    0.335250
     24          6           0       -4.622830    2.688350   -0.412600
     25          6           0       -5.796770    3.432540   -0.331510
     26          6           0       -5.851800    4.628840   -1.030990
     27          6           0       -4.765780    5.075230   -1.799160
     28          6           0       -3.601620    4.333770   -1.883440
     29          6           0       -3.524750    3.124460   -1.184470
     30          7           0       -2.431520    2.275980   -1.177860
     31          6           0       -2.179300   -1.600660   -0.687780
     32         16           0       -2.496570   -2.012580   -2.388440
     33          6           0       -3.294070   -3.471280   -1.824920
     34          6           0       -3.896730   -4.484380   -2.567080
     35          6           0       -4.469640   -5.538930   -1.873330
     36          6           0       -4.444470   -5.589960   -0.470740
     37          6           0       -3.844310   -4.586390    0.265930
     38          6           0       -3.259930   -3.511280   -0.413860
     39          7           0       -2.619730   -2.443140    0.186330
     40          1           0        4.576430   -3.753150   -3.634460
     41          1           0        6.261250   -5.088440   -2.420680
     42          1           0        6.593000   -4.811630    0.006710
     43          1           0        5.228230   -3.174400    1.288250
     44          1           0       -0.175090    1.391250   -1.772600
     45          1           0        0.025090   -0.313020   -2.273270
     46          1           0       -6.639880    3.095520    0.256710
     47          1           0       -6.752000    5.228090   -0.983000
     48          1           0       -4.844020    6.013390   -2.332980
     49          1           0       -2.756960    4.664130   -2.473210
     50          1           0       -3.922710   -4.453010   -3.648110
     51          1           0       -4.947040   -6.337810   -2.426170
     52          1           0       -4.903180   -6.428080    0.037470
     53          1           0       -3.818960   -4.613130    1.347220
     54         45           0        0.076330   -0.020130    1.694170
     55          6           0       -1.374090    0.205240    3.448500
     56          6           0       -1.228190   -1.135190    3.161170
     57          6           0        1.653170   -0.581410    3.244270
     58          6           0        1.490590    0.788280    3.251920
     59          6           0       -0.700640    0.944200    4.589760
     60          1           0       -2.217110    0.715950    2.994700
     61          1           0       -1.970320   -1.596750    2.517260
     62          6           0       -0.311390   -2.113290    3.851590
     63          6           0        1.064650   -1.542020    4.259430
     64          1           0        2.444750   -0.981400    2.618900
     65          6           0        0.642590    1.599570    4.200600
     66          1           0        2.202700    1.373530    2.678410
     67          1           0       -1.375450    1.727300    4.938930
     68          1           0       -0.563870    0.267160    5.432590
     69          1           0       -0.816350   -2.525490    4.734310
     70          1           0       -0.162290   -2.956020    3.173650
     71          1           0        1.001880   -1.054440    5.231960
     72          1           0        1.757700   -2.375600    4.383450
     73          1           0        0.444900    2.562480    3.725010
     74          1           0        1.219860    1.827010    5.105500
 ---------------------------------------------------------------------

 SCF Done:  E(RB3LYP) =  -4030.91012562     A.U. after   21 cycles

      1  C    Isotropic =     7.1014   Anisotropy =   108.0731

      2  S    Isotropic =   173.0304   Anisotropy =   362.8204

      3  C    Isotropic =    26.6335   Anisotropy =    59.0799

      4  C    Isotropic =    -4.7706   Anisotropy =   180.6343

      5  C    Isotropic =    -8.8532   Anisotropy =   246.1442

      6  C    Isotropic =    -0.6533   Anisotropy =   235.7256

      7  C    Isotropic =   -34.2311   Anisotropy =   258.3495

      8  C    Isotropic =    33.7547   Anisotropy =    64.9262

      9  N    Isotropic =   -85.4615   Anisotropy =   475.7583

     10  C    Isotropic =    12.9908   Anisotropy =    98.7938

     11  S    Isotropic =   202.2909   Anisotropy =   196.9723

     12  C    Isotropic =    34.6396   Anisotropy =   134.4914

     13  C    Isotropic =    57.9791   Anisotropy =   174.0432

     14  C    Isotropic =    49.1754   Anisotropy =   188.4685

     15  C    Isotropic =    50.7365   Anisotropy =   187.7949

     16  C    Isotropic =    52.9827   Anisotropy =   170.8499

     17  C    Isotropic =    25.2320   Anisotropy =   125.9813

     18  N    Isotropic =  -119.7970   Anisotropy =   454.5818

     19  P    Isotropic =   320.9239   Anisotropy =    66.0162

     20  C    Isotropic =   134.5557   Anisotropy =    44.4552

     21  P    Isotropic =   325.9725   Anisotropy =    62.4057

     22  C    Isotropic =    14.4920   Anisotropy =    95.4542

     23  S    Isotropic =   202.7136   Anisotropy =   210.6951

     24  C    Isotropic =    33.4605   Anisotropy =   131.1038

     25  C    Isotropic =    58.0488   Anisotropy =   172.6540

     26  C    Isotropic =    49.8904   Anisotropy =   187.0390

     27  C    Isotropic =    50.9317   Anisotropy =   187.0229

     28  C    Isotropic =    52.5498   Anisotropy =   171.6054

     29  C    Isotropic =    26.8424   Anisotropy =   127.7760

     30  N    Isotropic =  -107.4155   Anisotropy =   446.4752

     31  C    Isotropic =    11.9443   Anisotropy =    99.6054

     32  S    Isotropic =   202.8258   Anisotropy =   190.7042

     33  C    Isotropic =    34.0005   Anisotropy =   135.1517

     34  C    Isotropic =    57.8936   Anisotropy =   174.2332

     35  C    Isotropic =    49.2720   Anisotropy =   188.9842

     36  C    Isotropic =    50.9149   Anisotropy =   187.6623

     37  C    Isotropic =    52.9740   Anisotropy =   171.3905

     38  C    Isotropic =    25.9538   Anisotropy =   125.6037

     39  N    Isotropic =  -120.0964   Anisotropy =   453.2498

     40  H    Isotropic =    23.8862   Anisotropy =     9.0139

     41  H    Isotropic =    24.0737   Anisotropy =     4.7526

     42  H    Isotropic =    23.9917   Anisotropy =     5.3538

     43  H    Isotropic =    23.4553   Anisotropy =     8.4947

     44  H    Isotropic =    24.4338   Anisotropy =     7.1546

     45  H    Isotropic =    27.4750   Anisotropy =     8.8484

     46  H    Isotropic =    23.9070   Anisotropy =     9.2793

     47  H    Isotropic =    24.0671   Anisotropy =     4.9029

     48  H    Isotropic =    23.9249   Anisotropy =     5.4209

     49  H    Isotropic =    23.2074   Anisotropy =     8.3039

     50  H    Isotropic =    23.8525   Anisotropy =     9.0428

     51  H    Isotropic =    24.0726   Anisotropy =     4.7485

     52  H    Isotropic =    24.0068   Anisotropy =     5.4192

     53  H    Isotropic =    23.4519   Anisotropy =     8.5032

     54  Rh   Isotropic =  -338.0470   Anisotropy =   375.1515

     55  C    Isotropic =    73.3417   Anisotropy =   129.8430

     56  C    Isotropic =    69.9916   Anisotropy =   131.8744

     57  C    Isotropic =    71.7341   Anisotropy =   135.5742

     58  C    Isotropic =    72.6315   Anisotropy =   122.8542

     59  C    Isotropic =   153.9258   Anisotropy =    24.9175

     60  H    Isotropic =    26.5752   Anisotropy =     6.0241

     61  H    Isotropic =    24.2611   Anisotropy =     5.2364

     62  C    Isotropic =   147.9382   Anisotropy =    29.6122

     63  C    Isotropic =   153.7277   Anisotropy =    25.3345

     64  H    Isotropic =    25.3569   Anisotropy =     7.5563

     65  C    Isotropic =   148.0085   Anisotropy =    29.9129

     66  H    Isotropic =    26.2206   Anisotropy =     3.9812

     67  H    Isotropic =    29.9711   Anisotropy =    11.0187

     68  H    Isotropic =    29.6900   Anisotropy =     9.4159

     69  H    Isotropic =    28.9418   Anisotropy =    12.5865

     70  H    Isotropic =    28.8430   Anisotropy =     6.1664

     71  H    Isotropic =    29.6023   Anisotropy =     9.3533

     72  H    Isotropic =    29.6349   Anisotropy =    11.4573

     73  H    Isotropic =    29.3890   Anisotropy =     6.3740

     74  H    Isotropic =    29.2307   Anisotropy =    12.3379

 The electronic state is 1-A.
 Alpha  occ. eigenvalues --  -89.03678 -89.02852 -89.02640 -89.02238 -77.26126
 Alpha  occ. eigenvalues --  -77.25865 -14.44097 -14.43566 -14.43460 -14.42813
 Alpha  occ. eigenvalues --  -10.36327 -10.35856 -10.35698 -10.35345 -10.34594
 Alpha  occ. eigenvalues --  -10.34555 -10.32524 -10.31599 -10.31507 -10.31387
 Alpha  occ. eigenvalues --  -10.31185 -10.31152 -10.31030 -10.30879 -10.30575
 Alpha  occ. eigenvalues --  -10.30562 -10.29327 -10.29134 -10.29005 -10.28976
 Alpha  occ. eigenvalues --  -10.28891 -10.27983 -10.27888 -10.27561 -10.27444
 Alpha  occ. eigenvalues --  -10.27438 -10.27430 -10.27377 -10.27341 -10.27317
 Alpha  occ. eigenvalues --  -10.27270 -10.27247 -10.26946 -10.26869 -10.26816
 Alpha  occ. eigenvalues --  -10.26756 -10.26376  -8.08972  -8.08192  -8.07980
 Alpha  occ. eigenvalues --   -8.07567  -6.72082  -6.71823  -6.05381  -6.05029
 Alpha  occ. eigenvalues --   -6.04634  -6.04609  -6.04397  -6.04253  -6.04042
 Alpha  occ. eigenvalues --   -6.03988  -6.03842  -6.03634  -6.03629  -6.03208
 Alpha  occ. eigenvalues --   -4.88369  -4.88332  -4.88111  -4.88067  -4.87940
 Alpha  occ. eigenvalues --   -4.87688  -3.32443  -2.09478  -2.08723  -2.05750
 Alpha  occ. eigenvalues --   -1.08916  -1.08013  -1.07919  -1.07413  -0.99296
 Alpha  occ. eigenvalues --   -0.95523  -0.95421  -0.94952  -0.94534  -0.91783
 Alpha  occ. eigenvalues --   -0.91241  -0.90561  -0.90021  -0.89739  -0.89283
 Alpha  occ. eigenvalues --   -0.88036  -0.86498  -0.85589  -0.84640  -0.84557
 Alpha  occ. eigenvalues --   -0.84045  -0.83464  -0.82866  -0.82618  -0.80380
 Alpha  occ. eigenvalues --   -0.78436  -0.77848  -0.75431  -0.72852  -0.72424
 Alpha  occ. eigenvalues --   -0.70661  -0.70604  -0.70094  -0.69964  -0.69865
 Alpha  occ. eigenvalues --   -0.69371  -0.69009  -0.67395  -0.66756  -0.65809
 Alpha  occ. eigenvalues --   -0.64977  -0.64395  -0.62431  -0.61274  -0.60197
 Alpha  occ. eigenvalues --   -0.59638  -0.59255  -0.59042  -0.58800  -0.58730
 Alpha  occ. eigenvalues --   -0.58461  -0.58016  -0.57844  -0.57387  -0.56925
 Alpha  occ. eigenvalues --   -0.56212  -0.56133  -0.54824  -0.54382  -0.53802
 Alpha  occ. eigenvalues --   -0.53741  -0.53609  -0.53364  -0.53316  -0.53122
 Alpha  occ. eigenvalues --   -0.52641  -0.52617  -0.52566  -0.52456  -0.51058
 Alpha  occ. eigenvalues --   -0.50456  -0.49785  -0.49656  -0.49351  -0.48941
 Alpha  occ. eigenvalues --   -0.48767  -0.48227  -0.47897  -0.47328  -0.47035
 Alpha  occ. eigenvalues --   -0.46628  -0.46347  -0.45963  -0.45787  -0.45225
 Alpha  occ. eigenvalues --   -0.44853  -0.44386  -0.44269  -0.44061  -0.43874
 Alpha  occ. eigenvalues --   -0.43659  -0.43522  -0.43431  -0.43136  -0.42491
 Alpha  occ. eigenvalues --   -0.42134  -0.40769  -0.40605  -0.40133  -0.39922
 Alpha  occ. eigenvalues --   -0.39106  -0.38961  -0.38714  -0.38015  -0.37428
 Alpha  occ. eigenvalues --   -0.36405  -0.35737  -0.35454  -0.35231  -0.35001
 Alpha  occ. eigenvalues --   -0.34646  -0.34553  -0.34331  -0.33711  -0.33692
 Alpha  occ. eigenvalues --   -0.33524  -0.33127  -0.31332
 Alpha virt. eigenvalues --   -0.20580  -0.19104  -0.17766  -0.17509  -0.16305
 Alpha virt. eigenvalues --   -0.15322  -0.14368  -0.13316  -0.10964  -0.10935
 Alpha virt. eigenvalues --   -0.10802  -0.10439  -0.10275  -0.09955  -0.09804

 Mulliken charges:
               1
     1  C   -0.146143
     2  S    0.210072
     3  C   -0.174647
     4  C    0.037451
     5  C    0.092606
     6  C    0.113926
     7  C   -0.061340
     8  C   -0.131451
     9  N    0.045119
    10  C   -0.234630
    11  S    0.145775
    12  C   -0.157767
    13  C   -0.015833
    14  C   -0.098067
    15  C   -0.093985
    16  C   -0.139478
    17  C   -0.042565
    18  N    0.033429
    19  P    0.500463
    20  C   -0.688742
    21  P    0.514292
    22  C   -0.147360
    23  S    0.143624
    24  C   -0.149337
    25  C   -0.025212
    26  C   -0.102274
    27  C   -0.087852
    28  C   -0.138676
    29  C   -0.059922
    30  N    0.026466
    31  C   -0.230360
    32  S    0.148700
    33  C   -0.150982
    34  C   -0.018881
    35  C   -0.097547
    36  C   -0.095136
    37  C   -0.141547
    38  C   -0.047924
    39  N    0.036098
    40  H    0.144753
    41  H    0.139739
    42  H    0.139013
    43  H    0.133500
    44  H    0.274691
    45  H    0.231547
    46  H    0.142713
    47  H    0.137632
    48  H    0.136763
    49  H    0.136665
    50  H    0.144458
    51  H    0.139364
    52  H    0.138341
    53  H    0.132919
    54  Rh  -0.502940
    55  C   -0.006139
    56  C   -0.081132
    57  C    0.010229
    58  C   -0.103565
    59  C   -0.346713
    60  H    0.176452
    61  H    0.228598
    62  C   -0.240085
    63  C   -0.350635
    64  H    0.217983
    65  C   -0.223072
    66  H    0.180720
    67  H    0.171787
    68  H    0.165616
    69  H    0.171755
    70  H    0.142199
    71  H    0.165120
    72  H    0.169750
    73  H    0.138654
    74  H    0.172959
 Sum of Mulliken charges =   1.00000

 Dipole moment (field-independent basis, Debye):
    X=             -1.0451    Y=             -2.6008    Z=              1.1279  Tot=              3.0213
 Quadrupole moment (field-independent basis, Debye-Ang):
   XX=           -250.8066   YY=           -253.3245   ZZ=           -282.3538
   XY=            -10.8143   XZ=             -0.7891   YZ=              4.8854

 Summary of Natural Population Analysis:

                                       Natural Population
                Natural  -----------------------------------------------
    Atom  No    Charge         Core      Valence    Rydberg      Total
 -----------------------------------------------------------------------
      C    1   -0.23430      1.99927     4.19973    0.03530     6.23430
      S    2    0.46369      9.99883     5.50624    0.03125    15.53631
      C    3   -0.26243      1.99885     4.23640    0.02718     6.26243
      C    4   -0.05023      1.99746     4.03405    0.01871     6.05023
      C    5    0.11790      1.99756     3.86776    0.01678     5.88210
      C    6    0.01004      1.99716     3.97507    0.01773     5.98996
      C    7    0.08954      1.99759     3.89655    0.01631     5.91046
      C    8    0.02252      1.99885     3.95145    0.02718     5.97748
      N    9   -0.38891      1.99928     5.36838    0.02124     7.38891
      C   10   -0.24573      1.99927     4.21201    0.03444     6.24573
      S   11    0.40043      9.99889     5.57065    0.03002    15.59957
      C   12   -0.19603      1.99885     4.17680    0.02038     6.19603
      C   13   -0.20735      1.99906     4.19210    0.01619     6.20735
      C   14   -0.17276      1.99923     4.15921    0.01432     6.17276
      C   15   -0.19713      1.99923     4.18312    0.01478     6.19713
      C   16   -0.17479      1.99909     4.16083    0.01487     6.17479
      C   17    0.07054      1.99893     3.90805    0.02248     5.92946
      N   18   -0.38916      1.99931     5.37035    0.01950     7.38916
      P   19    1.10444      9.99612     3.84275    0.05669    13.89556
      C   20   -0.97888      1.99942     4.96076    0.01870     6.97888
      P   21    1.09766      9.99615     3.85067    0.05552    13.90234
      C   22   -0.22898      1.99927     4.19540    0.03430     6.22898
      S   23    0.39524      9.99891     5.57635    0.02950    15.60476
      C   24   -0.19677      1.99884     4.17765    0.02028     6.19677
      C   25   -0.20923      1.99906     4.19393    0.01625     6.20923
      C   26   -0.17583      1.99923     4.16223    0.01437     6.17583
      C   27   -0.19860      1.99923     4.18458    0.01479     6.19860
      C   28   -0.17441      1.99909     4.16046    0.01486     6.17441
      C   29    0.07241      1.99893     3.90597    0.02268     5.92759
      N   30   -0.39464      1.99930     5.37504    0.02030     7.39464
      C   31   -0.24228      1.99927     4.20873    0.03429     6.24228
      S   32    0.39991      9.99890     5.57127    0.02992    15.60009
      C   33   -0.19570      1.99885     4.17652    0.02033     6.19570
      C   34   -0.20772      1.99906     4.19245    0.01620     6.20772
      C   35   -0.17285      1.99923     4.15929    0.01433     6.17285
      C   36   -0.19824      1.99923     4.18422    0.01479     6.19824
      C   37   -0.17430      1.99909     4.16035    0.01486     6.17430
      C   38    0.06970      1.99893     3.90893    0.02243     5.93030
      N   39   -0.38806      1.99931     5.36900    0.01975     7.38806
      H   40    0.22678      0.00000     0.77172    0.00150     0.77322
      H   41    0.22475      0.00000     0.77413    0.00113     0.77525
      H   42    0.22451      0.00000     0.77437    0.00112     0.77549
      H   43    0.22804      0.00000     0.77042    0.00154     0.77196
      H   44    0.31971      0.00000     0.67778    0.00252     0.68029
      H   45    0.27027      0.00000     0.72798    0.00175     0.72973
      H   46    0.22547      0.00000     0.77302    0.00151     0.77453
      H   47    0.22351      0.00000     0.77536    0.00113     0.77649
      H   48    0.22350      0.00000     0.77539    0.00112     0.77650
      H   49    0.23002      0.00000     0.76841    0.00158     0.76998
      H   50    0.22664      0.00000     0.77186    0.00150     0.77336
      H   51    0.22443      0.00000     0.77444    0.00113     0.77557
      H   52    0.22415      0.00000     0.77473    0.00112     0.77585
      H   53    0.22753      0.00000     0.77095    0.00153     0.77247
     Rh   54   -0.39279     35.98498     9.37874    0.02906    45.39279
      C   55   -0.16568      1.99906     4.14693    0.01969     6.16568
      C   56   -0.15300      1.99908     4.13309    0.02083     6.15300
      C   57   -0.16150      1.99905     4.14267    0.01979     6.16150
      C   58   -0.15408      1.99906     4.13454    0.02049     6.15408
      C   59   -0.42319      1.99936     4.41204    0.01179     6.42319
      H   60    0.23003      0.00000     0.76776    0.00221     0.76997
      H   61    0.25329      0.00000     0.74443    0.00229     0.74671
      C   62   -0.42454      1.99935     4.41236    0.01283     6.42454
      C   63   -0.42332      1.99936     4.41226    0.01170     6.42332
      H   64    0.24820      0.00000     0.74941    0.00238     0.75180
      C   65   -0.42306      1.99936     4.41143    0.01227     6.42306
      H   66    0.22850      0.00000     0.76939    0.00211     0.77150
      H   67    0.23083      0.00000     0.76771    0.00146     0.76917
      H   68    0.21205      0.00000     0.78598    0.00197     0.78795
      H   69    0.23523      0.00000     0.76300    0.00177     0.76477
      H   70    0.22491      0.00000     0.77369    0.00140     0.77509
      H   71    0.21122      0.00000     0.78676    0.00201     0.78878
      H   72    0.23044      0.00000     0.76809    0.00146     0.76956
      H   73    0.22284      0.00000     0.77575    0.00141     0.77716
      H   74    0.23556      0.00000     0.76261    0.00183     0.76444
 =======================================================================
   * Total *    1.00000    177.93080   234.96449    1.10471   414.00000

 Normal termination of Gaussian 16 at Wed Jan 22 01:14:15 2025.
