 Gaussian 16, Revision B.01,
 Gaussian 16:  ES64L-G16RevB.01 20-Dec-2017

 ------------------------------------------
 # nmr=giao b3lyp/genecp pop=nbo scfcyc=200
 ------------------------------------------

 ----------
 MB-103_SPE
 ----------
 Symbolic Z-matrix:
 Charge =  1 Multiplicity = 1

                         Standard orientation:
 ---------------------------------------------------------------------
 Center     Atomic      Atomic             Coordinates (Angstroms)
 Number     Number       Type             X           Y           Z
 ---------------------------------------------------------------------
      1         15           0        0.396049    1.105731   -0.431530
      2          6           0        0.611637    2.795391   -1.121190
      3          6           0        1.048926    3.794461   -0.243190
      4          6           0        1.190355    5.105211   -0.682530
      5          6           0        0.879694    5.435991   -1.998340
      6          6           0        0.437775    4.449971   -2.874270
      7          6           0        0.306347    3.134541   -2.440530
      8          1           0       -0.014642    2.380210   -3.146060
      9          1           0        0.200795    4.702330   -3.900330
     10          1           0        0.983033    6.458201   -2.339720
     11          1           0        1.538874    5.867752    0.002600
     12          1           0        1.298326    3.549002    0.782560
     13          6           0       -0.170270   -0.047720   -1.776510
     14         15           0       -1.247449   -1.105591   -0.660380
     15          6           0       -2.766148   -1.567813   -1.595910
     16          6           0       -3.322607   -2.844193   -1.471210
     17          6           0       -4.520037   -3.152014   -2.109890
     18          6           0       -5.174088   -2.192305   -2.873870
     19          6           0       -4.632779   -0.915144   -2.990640
     20          6           0       -3.441419   -0.600643   -2.348650
     21          1           0       -3.050760    0.406217   -2.433210
     22          1           0       -5.140410   -0.161385   -3.579360
     23          1           0       -6.103238   -2.435666   -3.373290
     24          1           0       -4.938086   -4.145895   -2.010990
     25          1           0       -2.822516   -3.605003   -0.886570
     26          6           0       -0.300217   -2.661860   -0.416850
     27          6           0       -0.010807   -3.507210   -1.495570
     28          6           0        0.728805   -4.665219   -1.294120
     29          6           0        1.188965   -4.988159   -0.018750
     30          6           0        0.912274   -4.149329    1.053680
     31          6           0        0.169533   -2.988550    0.856530
     32          1           0       -0.032888   -2.328430    1.690370
     33          1           0        1.276924   -4.392628    2.043350
     34          1           0        1.763576   -5.892868    0.135160
     35          1           0        0.943855   -5.318329   -2.130700
     36          1           0       -0.372227   -3.271870   -2.489540
     37          1           0       -0.805491    0.509779   -2.464270
     38          1           0        0.600861   -0.556509   -2.350180
     39         45           0       -1.328151    0.521839    1.042870
     40          6           0       -1.078452    1.944099    2.798230
     41          6           0       -1.813823    2.579348    1.818150
     42          6           0       -3.460710    0.164107    1.826200
     43          6           0       -2.575509   -0.564522    2.588330
     44          6           0       -1.643001    1.325159    4.063890
     45          1           0       -0.009012    2.127290    2.807940
     46          1           0       -1.281203    3.247229    1.150510
     47          6           0       -3.314983    2.720107    1.759940
     48          6           0       -4.098842    1.478206    2.233120
     49          1           0       -3.935150   -0.349424    0.997490
     50          6           0       -1.993750   -0.173302    3.924730
     51          1           0       -2.450468   -1.612052    2.331610
     52          1           0       -0.904041    1.430939    4.859780
     53          1           0       -2.515982    1.890218    4.389940
     54          1           0       -3.624554    3.597547    2.341780
     55          1           0       -3.584453    2.939467    0.724720
     56          1           0       -4.230642    1.500696    3.314570
     57          1           0       -5.102752    1.520415    1.807330
     58          1           0       -1.088679   -0.765261    4.078600
     59          1           0       -2.680950   -0.467342    4.727850
     60          8           0        1.872919    0.649272    0.122990
     61          6           0        2.891550   -0.196357   -0.473760
     62          1           0        2.390391   -0.995807   -1.024940
     63          6           0        3.689231   -0.829626    0.649230
     64          6           0        4.403692   -2.000635    0.386490
     65          6           0        3.765580   -0.265926    1.922030
     66          6           0        5.187653   -2.590515    1.371190
     67          1           0        4.344372   -2.462455   -0.593200
     68          6           0        4.546901   -0.858735    2.909890
     69          1           0        3.207459    0.633833    2.140570
     70          6           0        5.262662   -2.019384    2.637920
     71          1           0        5.737193   -3.497194    1.150170
     72          1           0        4.598770   -0.409065    3.893980
     73          1           0        5.872792   -2.476944    3.406540
     74          6           0        3.775129    0.578604   -1.480670
     75          1           0        4.607630   -0.101115   -1.711530
     76          6           0        4.367028    1.860755   -0.904060
     77          1           0        4.889888    1.665765    0.031900
     78          1           0        5.087198    2.286495   -1.605560
     79          1           0        3.591497    2.602954   -0.715140
     80          7           0        3.002969    0.849003   -2.700250
     81          1           0        3.215678    1.776273   -3.044870
     82          6           0        3.188040   -0.131377   -3.768070
     83          1           0        2.810461   -1.108827   -3.455860
     84          1           0        2.618240    0.172573   -4.647250
     85          1           0        4.237960   -0.265645   -4.065360
 ---------------------------------------------------------------------

 SCF Done:  E(RB3LYP) =  -2359.53064228     A.U. after   16 cycles

      1  P    Isotropic =   215.4435   Anisotropy =   162.3359

      2  C    Isotropic =    39.1602   Anisotropy =   180.7798

      3  C    Isotropic =    47.0979   Anisotropy =   191.3588

      4  C    Isotropic =    48.4989   Anisotropy =   191.4011

      5  C    Isotropic =    45.9216   Anisotropy =   196.5704

      6  C    Isotropic =    49.6644   Anisotropy =   188.8190

      7  C    Isotropic =    51.5509   Anisotropy =   183.9117

      8  H    Isotropic =    24.2383   Anisotropy =    10.6685

      9  H    Isotropic =    24.0674   Anisotropy =     6.0551

     10  H    Isotropic =    24.0093   Anisotropy =     3.6522

     11  H    Isotropic =    23.9979   Anisotropy =     6.4372

     12  H    Isotropic =    24.1587   Anisotropy =     9.1926

     13  C    Isotropic =   133.3057   Anisotropy =    58.3427

     14  P    Isotropic =   315.7153   Anisotropy =   105.9666

     15  C    Isotropic =    43.6568   Anisotropy =   169.8190

     16  C    Isotropic =    47.1494   Anisotropy =   191.3681

     17  C    Isotropic =    48.8738   Anisotropy =   189.7530

     18  C    Isotropic =    46.6261   Anisotropy =   195.4549

     19  C    Isotropic =    48.9236   Anisotropy =   189.4215

     20  C    Isotropic =    49.5674   Anisotropy =   187.6209

     21  H    Isotropic =    23.9462   Anisotropy =    11.0674

     22  H    Isotropic =    24.0354   Anisotropy =     6.7188

     23  H    Isotropic =    24.1071   Anisotropy =     3.6521

     24  H    Isotropic =    24.3446   Anisotropy =     6.5613

     25  H    Isotropic =    24.8863   Anisotropy =    12.8491

     26  C    Isotropic =    45.8283   Anisotropy =   172.7864

     27  C    Isotropic =    46.5765   Anisotropy =   188.8807

     28  C    Isotropic =    48.2668   Anisotropy =   191.3043

     29  C    Isotropic =    44.7027   Anisotropy =   200.4629

     30  C    Isotropic =    48.6078   Anisotropy =   193.1960

     31  C    Isotropic =    41.2033   Anisotropy =   184.0984

     32  H    Isotropic =    23.7786   Anisotropy =     8.0220

     33  H    Isotropic =    24.6029   Anisotropy =     5.1760

     34  H    Isotropic =    24.0504   Anisotropy =     3.5801

     35  H    Isotropic =    24.0661   Anisotropy =     5.4534

     36  H    Isotropic =    24.2381   Anisotropy =    10.4355

     37  H    Isotropic =    27.1614   Anisotropy =     5.5112

     38  H    Isotropic =    27.9407   Anisotropy =     9.1366

     39  Rh   Isotropic =  -316.3799   Anisotropy =   357.9999

     40  C    Isotropic =    82.6223   Anisotropy =   116.4275

     41  C    Isotropic =    71.7090   Anisotropy =   125.2531

     42  C    Isotropic =    72.4302   Anisotropy =   131.3458

     43  C    Isotropic =    77.5865   Anisotropy =   115.1298

     44  C    Isotropic =   153.9174   Anisotropy =    24.7846

     45  H    Isotropic =    26.5542   Anisotropy =     6.7107

     46  H    Isotropic =    26.5007   Anisotropy =     5.1689

     47  C    Isotropic =   147.3840   Anisotropy =    30.7391

     48  C    Isotropic =   153.9521   Anisotropy =    25.2195

     49  H    Isotropic =    27.6752   Anisotropy =     5.6148

     50  C    Isotropic =   148.7457   Anisotropy =    28.7993

     51  H    Isotropic =    26.5909   Anisotropy =     4.0461

     52  H    Isotropic =    29.7061   Anisotropy =    11.3998

     53  H    Isotropic =    29.7358   Anisotropy =     9.6813

     54  H    Isotropic =    29.3441   Anisotropy =    12.3727

     55  H    Isotropic =    29.4606   Anisotropy =     6.6633

     56  H    Isotropic =    29.9188   Anisotropy =     9.6218

     57  H    Isotropic =    30.2087   Anisotropy =    11.1081

     58  H    Isotropic =    29.0778   Anisotropy =     7.7805

     59  H    Isotropic =    29.1397   Anisotropy =    12.6546

     60  O    Isotropic =   260.2982   Anisotropy =    33.2924

     61  C    Isotropic =    94.7600   Anisotropy =    55.4474

     62  H    Isotropic =    27.7020   Anisotropy =     4.0414

     63  C    Isotropic =    39.0460   Anisotropy =   186.1125

     64  C    Isotropic =    54.3781   Anisotropy =   173.3322

     65  C    Isotropic =    53.6894   Anisotropy =   188.7502

     66  C    Isotropic =    50.8778   Anisotropy =   187.8237

     67  H    Isotropic =    25.5325   Anisotropy =     8.5358

     68  C    Isotropic =    50.3814   Anisotropy =   187.7461

     69  H    Isotropic =    24.0875   Anisotropy =    10.7800

     70  C    Isotropic =    50.2109   Anisotropy =   188.2149

     71  H    Isotropic =    24.5079   Anisotropy =     5.4039

     72  H    Isotropic =    24.2131   Anisotropy =     6.4854

     73  H    Isotropic =    24.3390   Anisotropy =     3.5879

     74  C    Isotropic =   115.5910   Anisotropy =    35.9173

     75  H    Isotropic =    29.9082   Anisotropy =     4.8508

     76  C    Isotropic =   171.1027   Anisotropy =    23.6929

     77  H    Isotropic =    31.2788   Anisotropy =     7.5322

     78  H    Isotropic =    31.8356   Anisotropy =    11.5745

     79  H    Isotropic =    31.9360   Anisotropy =     9.4105

     80  N    Isotropic =   205.4925   Anisotropy =    60.4312

     81  H    Isotropic =    32.6046   Anisotropy =    10.5941

     82  C    Isotropic =   147.7015   Anisotropy =    56.0579

     83  H    Isotropic =    29.8589   Anisotropy =     6.5408

     84  H    Isotropic =    29.5511   Anisotropy =     9.7200

     85  H    Isotropic =    29.6266   Anisotropy =    12.0945

 The electronic state is 1-A.
 Alpha  occ. eigenvalues --  -77.26820 -77.23703 -19.24547 -14.39309 -10.33162
 Alpha  occ. eigenvalues --  -10.30030 -10.29607 -10.29490 -10.29377 -10.29295
 Alpha  occ. eigenvalues --  -10.28740 -10.28717 -10.28651 -10.28448 -10.28419
 Alpha  occ. eigenvalues --  -10.28412 -10.28370 -10.28350 -10.28284 -10.28073
 Alpha  occ. eigenvalues --  -10.27779 -10.27697 -10.27642 -10.27623 -10.27589
 Alpha  occ. eigenvalues --  -10.27542 -10.27531 -10.27474 -10.27402 -10.27344
 Alpha  occ. eigenvalues --  -10.27260 -10.27174 -10.26991 -10.26976 -10.26659
 Alpha  occ. eigenvalues --  -10.25582 -10.25277 -10.25263 -10.25186 -10.25005
 Alpha  occ. eigenvalues --  -10.24357  -6.72236  -6.69677  -4.88696  -4.88442
 Alpha  occ. eigenvalues --   -4.88070  -4.85964  -4.85902  -4.85572  -3.31285
 Alpha  occ. eigenvalues --   -2.08215  -2.07485  -2.04741  -1.13529  -0.99911
 Alpha  occ. eigenvalues --   -0.96779  -0.96423  -0.96080  -0.94256  -0.94122
 Alpha  occ. eigenvalues --   -0.89452  -0.88857  -0.87747  -0.87693  -0.86115
 Alpha  occ. eigenvalues --   -0.85366  -0.85317  -0.85268  -0.84866  -0.83978
 Alpha  occ. eigenvalues --   -0.83114  -0.82749  -0.80024  -0.78353  -0.77506
 Alpha  occ. eigenvalues --   -0.75205  -0.74894  -0.72876  -0.71258  -0.71077
 Alpha  occ. eigenvalues --   -0.70870  -0.70249  -0.70218  -0.70007  -0.68576
 Alpha  occ. eigenvalues --   -0.67866  -0.66919  -0.65526  -0.64654  -0.62788
 Alpha  occ. eigenvalues --   -0.62225  -0.62100  -0.61095  -0.60644  -0.59697
 Alpha  occ. eigenvalues --   -0.59282  -0.57395  -0.56965  -0.56770  -0.56369
 Alpha  occ. eigenvalues --   -0.56088  -0.55972  -0.55826  -0.55656  -0.55537
 Alpha  occ. eigenvalues --   -0.55426  -0.54856  -0.54730  -0.53551  -0.53327
 Alpha  occ. eigenvalues --   -0.53029  -0.52734  -0.52676  -0.52562  -0.52306
 Alpha  occ. eigenvalues --   -0.52265  -0.52157  -0.51582  -0.50621  -0.50316
 Alpha  occ. eigenvalues --   -0.50058  -0.49174  -0.48554  -0.48329  -0.47720
 Alpha  occ. eigenvalues --   -0.47473  -0.47440  -0.47211  -0.46846  -0.46229
 Alpha  occ. eigenvalues --   -0.45845  -0.45690  -0.45459  -0.45347  -0.45197
 Alpha  occ. eigenvalues --   -0.45127  -0.45063  -0.44622  -0.43940  -0.43579
 Alpha  occ. eigenvalues --   -0.43484  -0.43057  -0.42809  -0.42701  -0.42473
 Alpha  occ. eigenvalues --   -0.41739  -0.40992  -0.39569  -0.37710  -0.36954
 Alpha  occ. eigenvalues --   -0.36386  -0.36219  -0.36012  -0.35878  -0.35603
 Alpha  occ. eigenvalues --   -0.34986  -0.34407  -0.34375  -0.33552  -0.33509
 Alpha  occ. eigenvalues --   -0.33192  -0.31842  -0.30302
 Alpha virt. eigenvalues --   -0.16422  -0.14658  -0.13505  -0.12593  -0.11944
 Alpha virt. eigenvalues --   -0.11643  -0.11356  -0.10777  -0.09376  -0.09122
 Alpha virt. eigenvalues --   -0.08911  -0.07462  -0.07083  -0.06354  -0.06130

 Mulliken charges:
               1
     1  P    0.562382
     2  C   -0.077061
     3  C   -0.165195
     4  C   -0.070720
     5  C   -0.107921
     6  C   -0.098250
     7  C   -0.085332
     8  H    0.130258
     9  H    0.133918
    10  H    0.139844
    11  H    0.134825
    12  H    0.154004
    13  C   -0.582689
    14  P    0.321029
    15  C   -0.135708
    16  C   -0.084258
    17  C   -0.100037
    18  C   -0.098041
    19  C   -0.103871
    20  C   -0.080068
    21  H    0.130361
    22  H    0.131920
    23  H    0.140120
    24  H    0.136049
    25  H    0.160676
    26  C   -0.250172
    27  C   -0.092984
    28  C   -0.095244
    29  C   -0.091975
    30  C   -0.098755
    31  C   -0.023868
    32  H    0.162929
    33  H    0.132116
    34  H    0.138556
    35  H    0.134911
    36  H    0.150724
    37  H    0.185259
    38  H    0.221449
    39  Rh  -0.516534
    40  C   -0.017123
    41  C   -0.108861
    42  C   -0.018333
    43  C   -0.108225
    44  C   -0.353561
    45  H    0.170845
    46  H    0.220889
    47  C   -0.223260
    48  C   -0.353171
    49  H    0.203181
    50  C   -0.210755
    51  H    0.188156
    52  H    0.168257
    53  H    0.166106
    54  H    0.170247
    55  H    0.132257
    56  H    0.167050
    57  H    0.167935
    58  H    0.130439
    59  H    0.171080
    60  O   -0.389334
    61  C   -0.055814
    62  H    0.186733
    63  C   -0.009242
    64  C   -0.134402
    65  C   -0.084777
    66  C   -0.099270
    67  H    0.115246
    68  C   -0.095553
    69  H    0.117810
    70  C   -0.100939
    71  H    0.119838
    72  H    0.118820
    73  H    0.127735
    74  C   -0.057917
    75  H    0.168765
    76  C   -0.471300
    77  H    0.155523
    78  H    0.143356
    79  H    0.150974
    80  N   -0.333365
    81  H    0.228144
    82  C   -0.286819
    83  H    0.113940
    84  H    0.138501
    85  H    0.127546
 Sum of Mulliken charges =   1.00000

 Dipole moment (field-independent basis, Debye):
    X=             -1.8491    Y=              0.3167    Z=             -1.8322  Tot=              2.6223
 Quadrupole moment (field-independent basis, Debye-Ang):
   XX=           -226.4347   YY=           -219.1038   ZZ=           -231.4728
   XY=             -1.5925   XZ=             -0.6972   YZ=             -0.5665

 Summary of Natural Population Analysis:

                                       Natural Population
                Natural  -----------------------------------------------
    Atom  No    Charge         Core      Valence    Rydberg      Total
 -----------------------------------------------------------------------
      P    1    1.48289      9.99593     3.45227    0.06891    13.51711
      C    2   -0.37024      1.99897     4.34610    0.02517     6.37024
      C    3   -0.19742      1.99909     4.18280    0.01553     6.19742
      C    4   -0.19362      1.99919     4.17976    0.01467     6.19362
      C    5   -0.17915      1.99921     4.16527    0.01468     6.17915
      C    6   -0.19631      1.99920     4.18233    0.01478     6.19631
      C    7   -0.18393      1.99909     4.16931    0.01553     6.18393
      H    8    0.20941      0.00000     0.78842    0.00216     0.79059
      H    9    0.22153      0.00000     0.77722    0.00125     0.77847
      H   10    0.22329      0.00000     0.77553    0.00118     0.77671
      H   11    0.22313      0.00000     0.77564    0.00123     0.77687
      H   12    0.21693      0.00000     0.78107    0.00201     0.78307
      C   13   -1.01123      1.99942     4.99311    0.01870     7.01123
      P   14    1.12081      9.99643     3.83130    0.05145    13.87919
      C   15   -0.34004      1.99900     4.31750    0.02354     6.34004
      C   16   -0.19574      1.99910     4.18147    0.01517     6.19574
      C   17   -0.18899      1.99920     4.17507    0.01472     6.18899
      C   18   -0.18115      1.99920     4.16723    0.01472     6.18115
      C   19   -0.19131      1.99920     4.17737    0.01474     6.19131
      C   20   -0.19677      1.99909     4.18248    0.01519     6.19677
      H   21    0.20739      0.00000     0.79052    0.00209     0.79261
      H   22    0.22144      0.00000     0.77733    0.00123     0.77856
      H   23    0.22325      0.00000     0.77558    0.00117     0.77675
      H   24    0.22314      0.00000     0.77565    0.00121     0.77686
      H   25    0.22304      0.00000     0.77524    0.00172     0.77696
      C   26   -0.35415      1.99900     4.33085    0.02430     6.35415
      C   27   -0.19584      1.99909     4.18072    0.01603     6.19584
      C   28   -0.19617      1.99920     4.18227    0.01471     6.19617
      C   29   -0.17510      1.99920     4.16135    0.01455     6.17510
      C   30   -0.19077      1.99919     4.17689    0.01468     6.19077
      C   31   -0.17782      1.99909     4.16337    0.01536     6.17782
      H   32    0.22205      0.00000     0.77569    0.00226     0.77795
      H   33    0.22397      0.00000     0.77477    0.00126     0.77603
      H   34    0.22255      0.00000     0.77627    0.00118     0.77745
      H   35    0.22268      0.00000     0.77608    0.00125     0.77732
      H   36    0.21777      0.00000     0.78014    0.00210     0.78223
      H   37    0.26160      0.00000     0.73677    0.00162     0.73840
      H   38    0.26850      0.00000     0.72925    0.00225     0.73150
     Rh   39   -0.42582     35.98539     9.40834    0.03208    45.42582
      C   40   -0.18484      1.99906     4.16647    0.01932     6.18484
      C   41   -0.15117      1.99908     4.13149    0.02059     6.15117
      C   42   -0.15583      1.99906     4.13719    0.01957     6.15583
      C   43   -0.17284      1.99906     4.15335    0.02043     6.17284
      C   44   -0.42170      1.99936     4.41068    0.01166     6.42170
      H   45    0.22601      0.00000     0.77209    0.00190     0.77399
      H   46    0.23094      0.00000     0.76670    0.00236     0.76906
      C   47   -0.41903      1.99935     4.40664    0.01304     6.41903
      C   48   -0.42506      1.99936     4.41381    0.01189     6.42506
      H   49    0.23036      0.00000     0.76766    0.00198     0.76964
      C   50   -0.42087      1.99936     4.40913    0.01238     6.42087
      H   51    0.22624      0.00000     0.77186    0.00190     0.77376
      H   52    0.22824      0.00000     0.77026    0.00150     0.77176
      H   53    0.21377      0.00000     0.78425    0.00198     0.78623
      H   54    0.23250      0.00000     0.76561    0.00189     0.76750
      H   55    0.21671      0.00000     0.78179    0.00151     0.78329
      H   56    0.21372      0.00000     0.78426    0.00202     0.78628
      H   57    0.22890      0.00000     0.76965    0.00145     0.77110
      H   58    0.21814      0.00000     0.78039    0.00146     0.78186
      H   59    0.23360      0.00000     0.76448    0.00192     0.76640
      O   60   -0.78390      1.99979     6.76616    0.01794     8.78390
      C   61    0.09489      1.99906     3.88161    0.02445     5.90511
      H   62    0.18373      0.00000     0.81271    0.00356     0.81627
      C   63   -0.05341      1.99904     4.03448    0.01989     6.05341
      C   64   -0.20548      1.99909     4.19188    0.01450     6.20548
      C   65   -0.20240      1.99908     4.18874    0.01458     6.20240
      C   66   -0.19542      1.99921     4.18126    0.01495     6.19542
      H   67    0.20527      0.00000     0.79297    0.00176     0.79473
      C   68   -0.19661      1.99921     4.18258    0.01482     6.19661
      H   69    0.21813      0.00000     0.78001    0.00186     0.78187
      C   70   -0.20231      1.99920     4.18822    0.01489     6.20231
      H   71    0.21528      0.00000     0.78347    0.00124     0.78472
      H   72    0.21348      0.00000     0.78528    0.00123     0.78652
      H   73    0.21680      0.00000     0.78198    0.00122     0.78320
      C   74   -0.06054      1.99933     4.04457    0.01664     6.06054
      H   75    0.18574      0.00000     0.81061    0.00365     0.81426
      C   76   -0.61011      1.99941     4.60238    0.00832     6.61011
      H   77    0.22610      0.00000     0.77262    0.00128     0.77390
      H   78    0.21314      0.00000     0.78562    0.00124     0.78686
      H   79    0.20921      0.00000     0.78873    0.00207     0.79079
      N   80   -0.62970      1.99958     5.60875    0.02137     7.62970
      H   81    0.36384      0.00000     0.63307    0.00309     0.63616
      C   82   -0.40427      1.99942     4.39391    0.01094     6.40427
      H   83    0.17915      0.00000     0.81909    0.00177     0.82085
      H   84    0.20272      0.00000     0.79595    0.00132     0.79728
      H   85    0.17507      0.00000     0.82221    0.00272     0.82493
 =======================================================================
   * Total *    1.00000    133.94660   219.18495    0.86844   354.00000

 Normal termination of Gaussian 16 at Tue Jan 21 18:32:56 2025.
