 Gaussian 16, Revision B.01,
 Gaussian 16:  ES64L-G16RevB.01 20-Dec-2017

 ------------------------------------------
 # nmr=giao b3lyp/genecp pop=nbo scfcyc=200
 ------------------------------------------

 ----------
 MB-100_SPE
 ----------
 Symbolic Z-matrix:
 Charge =  1 Multiplicity = 1

                         Standard orientation:
 ---------------------------------------------------------------------
 Center     Atomic      Atomic             Coordinates (Angstroms)
 Number     Number       Type             X           Y           Z
 ---------------------------------------------------------------------
      1         15           0        1.426659   -0.478162    0.327910
      2         15           0       -1.485441   -0.540690    0.119840
      3          6           0       -0.041371   -1.570211    0.767220
      4          1           0       -0.140541   -1.793181    1.824900
      5          1           0        0.080409   -2.502591    0.231130
      6          6           0        1.459460    0.164028    3.010820
      7          1           0        0.423230   -0.013771    2.727470
      8          6           0        3.735110    0.110487    1.957630
      9          1           0        3.809180    0.582017    2.936540
     10          6           0        2.949179   -0.826572   -1.921640
     11          1           0        2.929200    0.240258   -1.720420
     12          6           0        2.869538   -2.859852   -0.382180
     13          1           0        3.958398   -2.791843   -0.353180
     14          6           0       -2.518010    1.145930    2.062020
     15          1           0       -1.726030    1.677310    1.534930
     16          6           0       -3.455011   -1.174509    2.138270
     17          1           0       -3.697341   -0.689509    3.083380
     18          6           0       -2.923471   -0.991030   -2.231220
     19          1           0       -3.513111   -1.809329   -2.644890
     20          6           0       -2.135902   -3.063700   -1.039290
     21          1           0       -1.607282   -3.333440   -0.128230
     22         45           0        0.029030    1.308089   -0.597390
     23          6           0        1.317961    3.106498   -0.235960
     24          6           0        1.644401    2.586088   -1.476860
     25          6           0       -1.183159    2.729800   -1.967890
     26          6           0       -1.518349    3.002420   -0.663250
     27          1           0        1.936401    2.793478    0.593090
     28          6           0        0.522832    4.376649    0.006520
     29          1           0        2.534001    1.972818   -1.518260
     30          6           0        1.192281    3.099179   -2.819740
     31          6           0       -0.273709    3.568829   -2.841660
     32          1           0       -1.827319    2.044390   -2.499950
     33          1           0       -2.426929    2.550250   -0.291800
     34          6           0       -0.988029    4.134509    0.177490
     35          1           0        0.705712    5.077949   -0.807880
     36          1           0        0.906632    4.858439    0.907450
     37          1           0        1.851681    3.911358   -3.150770
     38          1           0        1.322861    2.294688   -3.546740
     39          1           0       -0.643119    3.524329   -3.867570
     40          1           0       -0.342948    4.614699   -2.542460
     41          1           0       -1.544148    5.053020   -0.047030
     42          1           0       -1.199279    3.909380    1.224600
     43          6           0        4.266130    1.143667    0.959380
     44          1           0        4.215230    0.788327   -0.068890
     45          1           0        3.727351    2.086947    1.030300
     46          1           0        5.316040    1.351127    1.174950
     47          6           0        1.757669   -0.736402    4.216510
     48          1           0        2.778859   -0.600692    4.577980
     49          1           0        1.087069   -0.495951    5.044380
     50          1           0        1.626369   -1.789792    3.965440
     51          6           0        2.077599   -1.031972   -3.166340
     52          1           0        2.468749   -0.434032   -3.993430
     53          1           0        2.050659   -2.069402   -3.495530
     54          1           0        1.055989   -0.707441   -2.970200
     55          6           0        2.442778   -3.445482    0.971030
     56          1           0        2.480178   -2.723232    1.779630
     57          1           0        1.445448   -3.883362    0.935910
     58          1           0        3.132848   -4.254612    1.215100
     59          6           0       -1.307882   -3.589850   -2.220310
     60          1           0       -1.080322   -4.646870   -2.067370
     61          1           0       -1.856482   -3.515010   -3.160510
     62          1           0       -0.371312   -3.045941   -2.329530
     63          6           0       -3.927800    0.113271   -1.892620
     64          1           0       -4.688090   -0.241619   -1.200030
     65          1           0       -3.449850    0.985621   -1.447690
     66          1           0       -4.428080    0.443931   -2.804620
     67          6           0       -3.836989    1.905101    1.859550
     68          1           0       -4.640850    1.473381    2.458690
     69          1           0       -3.724829    2.944011    2.178730
     70          1           0       -4.158709    1.898971    0.818190
     71          6           0       -2.814631   -2.508260    2.533590
     72          1           0       -2.519192   -3.111750    1.677140
     73          1           0       -1.938811   -2.351880    3.164930
     74          1           0       -3.532682   -3.096979    3.107360
     75          7           0       -2.524870   -0.219310    1.468690
     76          7           0       -2.254521   -1.574640   -1.029340
     77          7           0        2.387219   -1.466272   -0.688100
     78          7           0        2.282060   -0.218412    1.831430
     79          6           0       -4.793061   -1.358449    1.411190
     80          1           0       -5.304801   -0.404939    1.289970
     81          1           0       -4.666641   -1.797219    0.426920
     82          1           0       -5.444591   -2.012879    1.995330
     83          6           0       -1.939511   -0.554080   -3.326150
     84          1           0       -1.403021   -1.402330   -3.745130
     85          1           0       -2.474540   -0.064050   -4.143090
     86          1           0       -1.199070    0.142440   -2.933210
     87          6           0       -2.145290    1.164740    3.553650
     88          1           0       -1.910729    2.187110    3.856830
     89          1           0       -2.964290    0.828800    4.191700
     90          1           0       -1.278430    0.541380    3.764360
     91          6           0        4.662689   -1.107743    2.026400
     92          1           0        4.761699   -1.611033    1.067110
     93          1           0        5.660139   -0.778993    2.326840
     94          1           0        4.317049   -1.831303    2.763520
     95          6           0        1.542140    1.648838    3.395520
     96          1           0        0.873270    1.848269    4.234200
     97          1           0        2.543251    1.944868    3.711830
     98          1           0        1.237481    2.287439    2.567230
     99          6           0        2.516538   -3.878892   -1.473490
    100          1           0        2.933498   -3.629232   -2.445560
    101          1           0        2.923998   -4.851182   -1.187480
    102          1           0        1.437958   -3.988072   -1.580750
    103          6           0        4.418499   -1.168783   -2.197030
    104          1           0        4.775839   -0.529813   -3.006540
    105          1           0        5.053129   -0.985013   -1.329880
    106          1           0        4.565779   -2.200093   -2.516420
    107          6           0       -3.478712   -3.808059   -0.991520
    108          1           0       -3.287402   -4.882789   -1.018050
    109          1           0       -4.040182   -3.596819   -0.085880
    110          1           0       -4.112002   -3.576939   -1.849400
 ---------------------------------------------------------------------

 SCF Done:  E(RB3LYP) =  -2312.36364495     A.U. after   17 cycles

      1  P    Isotropic =   222.6172   Anisotropy =   125.6909

      2  P    Isotropic =   251.0933   Anisotropy =   149.5087

      3  C    Isotropic =   109.6264   Anisotropy =    67.3470

      4  H    Isotropic =    28.0811   Anisotropy =     6.1396

      5  H    Isotropic =    27.5870   Anisotropy =     8.8852

      6  C    Isotropic =   130.1016   Anisotropy =    41.9052

      7  H    Isotropic =    28.2647   Anisotropy =     6.4944

      8  C    Isotropic =   134.0168   Anisotropy =    40.6959

      9  H    Isotropic =    28.5785   Anisotropy =     3.9040

     10  C    Isotropic =   124.9686   Anisotropy =    48.3702

     11  H    Isotropic =    28.2995   Anisotropy =     5.9587

     12  C    Isotropic =   125.5092   Anisotropy =    50.9669

     13  H    Isotropic =    28.1881   Anisotropy =     4.1532

     14  C    Isotropic =   124.0566   Anisotropy =    50.9628

     15  H    Isotropic =    26.7808   Anisotropy =     7.4988

     16  C    Isotropic =   130.0126   Anisotropy =    47.2991

     17  H    Isotropic =    28.2932   Anisotropy =     3.7373

     18  C    Isotropic =   132.8290   Anisotropy =    40.9592

     19  H    Isotropic =    28.3688   Anisotropy =     5.2626

     20  C    Isotropic =   128.0184   Anisotropy =    46.4722

     21  H    Isotropic =    28.1663   Anisotropy =     2.6469

     22  Rh   Isotropic =  -429.5622   Anisotropy =   472.1853

     23  C    Isotropic =    80.0582   Anisotropy =   120.2725

     24  C    Isotropic =    87.0899   Anisotropy =   101.9009

     25  C    Isotropic =    72.7676   Anisotropy =   133.0136

     26  C    Isotropic =    78.7185   Anisotropy =   117.8093

     27  H    Isotropic =    27.1529   Anisotropy =     5.9715

     28  C    Isotropic =   154.3081   Anisotropy =    26.0224

     29  H    Isotropic =    27.4561   Anisotropy =     4.9542

     30  C    Isotropic =   146.9469   Anisotropy =    30.3884

     31  C    Isotropic =   155.7395   Anisotropy =    24.8166

     32  H    Isotropic =    26.7554   Anisotropy =     4.7679

     33  H    Isotropic =    26.9000   Anisotropy =     4.6634

     34  C    Isotropic =   149.5897   Anisotropy =    25.5827

     35  H    Isotropic =    29.8465   Anisotropy =     9.6990

     36  H    Isotropic =    29.8234   Anisotropy =    10.1836

     37  H    Isotropic =    29.2084   Anisotropy =    12.4538

     38  H    Isotropic =    28.9800   Anisotropy =     6.1480

     39  H    Isotropic =    29.8974   Anisotropy =    11.1688

     40  H    Isotropic =    29.9919   Anisotropy =     9.5580

     41  H    Isotropic =    29.3279   Anisotropy =    12.4831

     42  H    Isotropic =    29.2393   Anisotropy =     5.8730

     43  C    Isotropic =   161.3672   Anisotropy =    35.5461

     44  H    Isotropic =    31.1643   Anisotropy =     5.4290

     45  H    Isotropic =    31.1103   Anisotropy =     6.2638

     46  H    Isotropic =    30.8268   Anisotropy =    11.4738

     47  C    Isotropic =   160.9855   Anisotropy =    38.6355

     48  H    Isotropic =    30.5420   Anisotropy =     7.6578

     49  H    Isotropic =    30.8249   Anisotropy =    10.1381

     50  H    Isotropic =    30.8547   Anisotropy =     6.5960

     51  C    Isotropic =   155.3725   Anisotropy =    38.4604

     52  H    Isotropic =    30.6143   Anisotropy =     9.0471

     53  H    Isotropic =    30.1525   Anisotropy =     4.3658

     54  H    Isotropic =    29.6488   Anisotropy =     8.5885

     55  C    Isotropic =   160.0836   Anisotropy =    21.0293

     56  H    Isotropic =    29.7112   Anisotropy =     8.0542

     57  H    Isotropic =    31.0529   Anisotropy =     3.8151

     58  H    Isotropic =    30.7391   Anisotropy =    10.8204

     59  C    Isotropic =   155.6969   Anisotropy =    32.5067

     60  H    Isotropic =    30.7299   Anisotropy =     9.6167

     61  H    Isotropic =    30.3791   Anisotropy =     5.7243

     62  H    Isotropic =    30.5551   Anisotropy =     9.0689

     63  C    Isotropic =   160.4482   Anisotropy =    28.4661

     64  H    Isotropic =    30.3421   Anisotropy =     7.4483

     65  H    Isotropic =    31.4331   Anisotropy =     6.2743

     66  H    Isotropic =    30.9205   Anisotropy =    10.7242

     67  C    Isotropic =   158.5751   Anisotropy =    34.9677

     68  H    Isotropic =    30.4535   Anisotropy =     7.3751

     69  H    Isotropic =    30.7200   Anisotropy =     9.3298

     70  H    Isotropic =    30.7904   Anisotropy =     4.7510

     71  C    Isotropic =   160.4796   Anisotropy =    27.4118

     72  H    Isotropic =    30.6415   Anisotropy =     5.2484

     73  H    Isotropic =    30.7175   Anisotropy =     5.9433

     74  H    Isotropic =    30.5759   Anisotropy =    11.2251

     75  N    Isotropic =   148.4767   Anisotropy =    54.6198

     76  N    Isotropic =   158.3761   Anisotropy =    49.0863

     77  N    Isotropic =   160.2043   Anisotropy =    45.7220

     78  N    Isotropic =   167.9059   Anisotropy =    75.3748

     79  C    Isotropic =   158.0689   Anisotropy =    30.6707

     80  H    Isotropic =    30.6137   Anisotropy =     5.4272

     81  H    Isotropic =    29.9199   Anisotropy =     6.3220

     82  H    Isotropic =    30.8883   Anisotropy =    11.5415

     83  C    Isotropic =   155.7361   Anisotropy =    32.7480

     84  H    Isotropic =    30.2691   Anisotropy =     4.7647

     85  H    Isotropic =    30.7800   Anisotropy =     9.6322

     86  H    Isotropic =    29.2512   Anisotropy =     9.0877

     87  C    Isotropic =   160.3799   Anisotropy =    39.8804

     88  H    Isotropic =    30.4128   Anisotropy =     8.0370

     89  H    Isotropic =    30.3071   Anisotropy =     7.2045

     90  H    Isotropic =    30.8657   Anisotropy =     9.0397

     91  C    Isotropic =   159.6548   Anisotropy =    35.4877

     92  H    Isotropic =    30.6056   Anisotropy =     5.0115

     93  H    Isotropic =    30.7902   Anisotropy =    12.0115

     94  H    Isotropic =    30.5977   Anisotropy =     6.4558

     95  C    Isotropic =   164.9649   Anisotropy =    30.7876

     96  H    Isotropic =    30.7585   Anisotropy =     8.3992

     97  H    Isotropic =    30.4994   Anisotropy =     6.4951

     98  H    Isotropic =    30.4367   Anisotropy =     8.7750

     99  C    Isotropic =   155.8656   Anisotropy =    34.6704

    100  H    Isotropic =    30.2149   Anisotropy =     5.9409

    101  H    Isotropic =    30.7721   Anisotropy =    11.4073

    102  H    Isotropic =    30.6502   Anisotropy =     7.7173

    103  C    Isotropic =   164.6291   Anisotropy =    29.1333

    104  H    Isotropic =    30.6811   Anisotropy =    10.5414

    105  H    Isotropic =    30.5290   Anisotropy =     7.3962

    106  H    Isotropic =    30.3591   Anisotropy =     7.7215

    107  C    Isotropic =   164.0806   Anisotropy =    32.5130

    108  H    Isotropic =    30.9047   Anisotropy =    11.1873

    109  H    Isotropic =    30.2438   Anisotropy =     8.2426

    110  H    Isotropic =    30.4866   Anisotropy =     7.0286

 The electronic state is 1-A.
 Alpha  occ. eigenvalues --  -77.26453 -77.25922 -14.42292 -14.41830 -14.41321
 Alpha  occ. eigenvalues --  -14.41287 -10.30834 -10.30768 -10.30705 -10.30641
 Alpha  occ. eigenvalues --  -10.30421 -10.30388 -10.30305 -10.30135 -10.28808
 Alpha  occ. eigenvalues --  -10.28740 -10.28673 -10.28434 -10.28287 -10.27472
 Alpha  occ. eigenvalues --  -10.27242 -10.27218 -10.27099 -10.25393 -10.25326
 Alpha  occ. eigenvalues --  -10.25310 -10.25306 -10.25248 -10.25203 -10.25171
 Alpha  occ. eigenvalues --  -10.25166 -10.25141 -10.25020 -10.24953 -10.24941
 Alpha  occ. eigenvalues --  -10.24792 -10.24716 -10.24554 -10.24205  -6.71647
 Alpha  occ. eigenvalues --   -6.71123  -4.88015  -4.87921  -4.87560  -4.87465
 Alpha  occ. eigenvalues --   -4.87398  -4.87056  -3.31068  -2.07865  -2.07246
 Alpha  occ. eigenvalues --   -2.04555  -1.02296  -1.01901  -0.99841  -0.99776
 Alpha  occ. eigenvalues --   -0.94446  -0.89083  -0.88744  -0.88583  -0.88544
 Alpha  occ. eigenvalues --   -0.88220  -0.87976  -0.87436  -0.85654  -0.83514
 Alpha  occ. eigenvalues --   -0.83220  -0.82300  -0.80292  -0.78793  -0.78660
 Alpha  occ. eigenvalues --   -0.78419  -0.78229  -0.78083  -0.77765  -0.77736
 Alpha  occ. eigenvalues --   -0.77615  -0.77515  -0.73308  -0.71235  -0.70622
 Alpha  occ. eigenvalues --   -0.70505  -0.70257  -0.69952  -0.69803  -0.65989
 Alpha  occ. eigenvalues --   -0.65852  -0.65580  -0.62699  -0.62418  -0.61763
 Alpha  occ. eigenvalues --   -0.60494  -0.59888  -0.59459  -0.58772  -0.58394
 Alpha  occ. eigenvalues --   -0.57896  -0.57584  -0.56668  -0.56224  -0.55509
 Alpha  occ. eigenvalues --   -0.55188  -0.54862  -0.53987  -0.53879  -0.53648
 Alpha  occ. eigenvalues --   -0.53474  -0.53380  -0.53019  -0.52943  -0.52644
 Alpha  occ. eigenvalues --   -0.52468  -0.52411  -0.52210  -0.51762  -0.51645
 Alpha  occ. eigenvalues --   -0.50943  -0.50649  -0.50315  -0.50117  -0.50005
 Alpha  occ. eigenvalues --   -0.49621  -0.49614  -0.48667  -0.48568  -0.48511
 Alpha  occ. eigenvalues --   -0.48198  -0.47943  -0.47928  -0.47824  -0.47743
 Alpha  occ. eigenvalues --   -0.47660  -0.47541  -0.47439  -0.47177  -0.46933
 Alpha  occ. eigenvalues --   -0.46736  -0.46452  -0.46288  -0.46175  -0.45825
 Alpha  occ. eigenvalues --   -0.45774  -0.45524  -0.45280  -0.45004  -0.44527
 Alpha  occ. eigenvalues --   -0.44143  -0.43781  -0.43751  -0.43673  -0.43435
 Alpha  occ. eigenvalues --   -0.43322  -0.43051  -0.42793  -0.42668  -0.42516
 Alpha  occ. eigenvalues --   -0.42259  -0.41934  -0.41745  -0.41622  -0.41370
 Alpha  occ. eigenvalues --   -0.40762  -0.37880  -0.36676  -0.34735  -0.34677
 Alpha  occ. eigenvalues --   -0.33652  -0.33463  -0.32697  -0.31659  -0.31271
 Alpha  occ. eigenvalues --   -0.29784
 Alpha virt. eigenvalues --   -0.16063  -0.14051  -0.09306  -0.07665  -0.07518
 Alpha virt. eigenvalues --   -0.06983  -0.06547  -0.06171  -0.06107  -0.05816
 Alpha virt. eigenvalues --   -0.05035  -0.04612  -0.04299  -0.04078  -0.03788

 Mulliken charges:
               1
     1  P    0.512547
     2  P    0.504390
     3  C   -0.614215
     4  H    0.232623
     5  H    0.195828
     6  C   -0.144272
     7  H    0.125119
     8  C    0.022461
     9  H    0.152076
    10  C   -0.001681
    11  H    0.029312
    12  C   -0.035011
    13  H    0.174895
    14  C   -0.100743
    15  H    0.128935
    16  C    0.043399
    17  H    0.141208
    18  C   -0.018397
    19  H    0.156695
    20  C   -0.078409
    21  H    0.150365
    22  Rh  -0.375778
    23  C   -0.039694
    24  C   -0.098177
    25  C   -0.028273
    26  C   -0.144746
    27  H    0.157252
    28  C   -0.347027
    29  H    0.249889
    30  C   -0.255832
    31  C   -0.342217
    32  H    0.205422
    33  H    0.207912
    34  C   -0.254413
    35  H    0.174431
    36  H    0.167154
    37  H    0.169321
    38  H    0.141637
    39  H    0.167154
    40  H    0.171917
    41  H    0.171164
    42  H    0.135338
    43  C   -0.429600
    44  H    0.116715
    45  H    0.144436
    46  H    0.151635
    47  C   -0.344584
    48  H    0.137300
    49  H    0.139322
    50  H    0.131544
    51  C   -0.374171
    52  H    0.137238
    53  H    0.137269
    54  H    0.131457
    55  C   -0.437097
    56  H    0.159780
    57  H    0.144337
    58  H    0.158204
    59  C   -0.434804
    60  H    0.151967
    61  H    0.150427
    62  H    0.156354
    63  C   -0.374480
    64  H    0.148673
    65  H    0.089704
    66  H    0.152894
    67  C   -0.382155
    68  H    0.146423
    69  H    0.142970
    70  H    0.143010
    71  C   -0.423937
    72  H    0.123693
    73  H    0.136117
    74  H    0.152076
    75  N   -0.313594
    76  N   -0.312425
    77  N   -0.327155
    78  N   -0.301466
    79  C   -0.390520
    80  H    0.139042
    81  H    0.130468
    82  H    0.140098
    83  C   -0.406986
    84  H    0.148754
    85  H    0.147182
    86  H    0.111642
    87  C   -0.394773
    88  H    0.142697
    89  H    0.142336
    90  H    0.141304
    91  C   -0.375431
    92  H    0.108421
    93  H    0.144212
    94  H    0.143175
    95  C   -0.362723
    96  H    0.146544
    97  H    0.138277
    98  H    0.122653
    99  C   -0.380772
   100  H    0.134465
   101  H    0.146514
   102  H    0.131689
   103  C   -0.375064
   104  H    0.147927
   105  H    0.147741
   106  H    0.143331
   107  C   -0.376800
   108  H    0.143871
   109  H    0.147992
   110  H    0.135101
 Sum of Mulliken charges =   1.00000

 Dipole moment (field-independent basis, Debye):
    X=              0.3413    Y=              0.2082    Z=              0.1481  Tot=              0.4263
 Quadrupole moment (field-independent basis, Debye-Ang):
   XX=           -242.1352   YY=           -244.9028   ZZ=           -254.2480
   XY=              1.1827   XZ=             -0.3696   YZ=             -0.7144

 Summary of Natural Population Analysis:

                                       Natural Population
                Natural  -----------------------------------------------
    Atom  No    Charge         Core      Valence    Rydberg      Total
 -----------------------------------------------------------------------
      P    1    1.49094      9.99637     3.44363    0.06906    13.50906
      P    2    1.42085      9.99638     3.51372    0.06905    13.57915
      C    3   -1.06578      1.99935     5.04576    0.02067     7.06578
      H    4    0.26211      0.00000     0.73590    0.00198     0.73789
      H    5    0.25999      0.00000     0.73796    0.00205     0.74001
      C    6   -0.03115      1.99937     4.01629    0.01548     6.03115
      H    7    0.19663      0.00000     0.80017    0.00320     0.80337
      C    8   -0.03037      1.99933     4.01438    0.01666     6.03037
      H    9    0.19988      0.00000     0.79729    0.00283     0.80012
      C   10   -0.02154      1.99935     4.00669    0.01551     6.02154
      H   11    0.19496      0.00000     0.80240    0.00264     0.80504
      C   12   -0.02853      1.99932     4.01125    0.01796     6.02853
      H   13    0.19005      0.00000     0.80677    0.00318     0.80995
      C   14   -0.02464      1.99936     4.00985    0.01544     6.02464
      H   15    0.21376      0.00000     0.78206    0.00418     0.78624
      C   16   -0.03391      1.99935     4.01676    0.01779     6.03391
      H   17    0.19988      0.00000     0.79736    0.00276     0.80012
      C   18   -0.03211      1.99934     4.01683    0.01594     6.03211
      H   19    0.20210      0.00000     0.79497    0.00294     0.79790
      C   20   -0.02661      1.99935     4.01104    0.01622     6.02661
      H   21    0.19187      0.00000     0.80488    0.00325     0.80813
     Rh   22   -0.31207     35.98667     9.29699    0.02841    45.31207
      C   23   -0.16600      1.99909     4.14738    0.01953     6.16600
      C   24   -0.18968      1.99911     4.17084    0.01973     6.18968
      C   25   -0.17218      1.99909     4.15328    0.01981     6.17218
      C   26   -0.18427      1.99908     4.16439    0.02080     6.18427
      H   27    0.21902      0.00000     0.77843    0.00254     0.78098
      C   28   -0.42414      1.99934     4.41257    0.01223     6.42414
      H   29    0.21280      0.00000     0.78485    0.00236     0.78720
      C   30   -0.41246      1.99934     4.40038    0.01274     6.41246
      C   31   -0.42502      1.99935     4.41357    0.01210     6.42502
      H   32    0.22678      0.00000     0.77083    0.00240     0.77322
      H   33    0.22469      0.00000     0.77278    0.00253     0.77531
      C   34   -0.41688      1.99933     4.40465    0.01290     6.41688
      H   35    0.21750      0.00000     0.78056    0.00194     0.78250
      H   36    0.22665      0.00000     0.77183    0.00152     0.77335
      H   37    0.22985      0.00000     0.76821    0.00194     0.77015
      H   38    0.21698      0.00000     0.78106    0.00196     0.78302
      H   39    0.22874      0.00000     0.76978    0.00148     0.77126
      H   40    0.21605      0.00000     0.78198    0.00196     0.78395
      H   41    0.23281      0.00000     0.76523    0.00196     0.76719
      H   42    0.21260      0.00000     0.78544    0.00196     0.78740
      C   43   -0.60106      1.99940     4.59367    0.00798     6.60106
      H   44    0.19679      0.00000     0.80142    0.00178     0.80321
      H   45    0.20294      0.00000     0.79555    0.00151     0.79706
      H   46    0.22168      0.00000     0.77714    0.00118     0.77832
      C   47   -0.60465      1.99941     4.59694    0.00831     6.60465
      H   48    0.20721      0.00000     0.79141    0.00138     0.79279
      H   49    0.21342      0.00000     0.78531    0.00126     0.78658
      H   50    0.20715      0.00000     0.79139    0.00146     0.79285
      C   51   -0.59921      1.99941     4.59147    0.00833     6.59921
      H   52    0.21034      0.00000     0.78839    0.00127     0.78966
      H   53    0.20701      0.00000     0.79144    0.00155     0.79299
      H   54    0.21256      0.00000     0.78576    0.00168     0.78744
      C   55   -0.61554      1.99940     4.60724    0.00890     6.61554
      H   56    0.22515      0.00000     0.77255    0.00230     0.77485
      H   57    0.19554      0.00000     0.80283    0.00163     0.80446
      H   58    0.22518      0.00000     0.77371    0.00111     0.77482
      C   59   -0.61494      1.99941     4.60731    0.00823     6.61494
      H   60    0.21604      0.00000     0.78269    0.00127     0.78396
      H   61    0.20726      0.00000     0.79128    0.00147     0.79274
      H   62    0.20786      0.00000     0.79047    0.00167     0.79214
      C   63   -0.59631      1.99941     4.58905    0.00786     6.59631
      H   64    0.21792      0.00000     0.78057    0.00150     0.78208
      H   65    0.19368      0.00000     0.80446    0.00187     0.80632
      H   66    0.21748      0.00000     0.78132    0.00120     0.78252
      C   67   -0.61586      1.99941     4.60798    0.00846     6.61586
      H   68    0.20964      0.00000     0.78890    0.00145     0.79036
      H   69    0.21414      0.00000     0.78464    0.00122     0.78586
      H   70    0.20640      0.00000     0.79216    0.00144     0.79360
      C   71   -0.60199      1.99941     4.59431    0.00827     6.60199
      H   72    0.19316      0.00000     0.80493    0.00191     0.80684
      H   73    0.20357      0.00000     0.79495    0.00148     0.79643
      H   74    0.22179      0.00000     0.77703    0.00118     0.77821
      N   75   -0.76550      1.99948     5.73821    0.02781     7.76550
      N   76   -0.75958      1.99949     5.73624    0.02385     7.75958
      N   77   -0.76709      1.99949     5.74479    0.02281     7.76709
      N   78   -0.76745      1.99949     5.73949    0.02847     7.76745
      C   79   -0.60534      1.99940     4.59814    0.00780     6.60534
      H   80    0.20973      0.00000     0.78886    0.00141     0.79027
      H   81    0.20443      0.00000     0.79392    0.00165     0.79557
      H   82    0.21179      0.00000     0.78701    0.00120     0.78821
      C   83   -0.59968      1.99941     4.59226    0.00802     6.59968
      H   84    0.21301      0.00000     0.78554    0.00145     0.78699
      H   85    0.21202      0.00000     0.78669    0.00129     0.78798
      H   86    0.20574      0.00000     0.79193    0.00233     0.79426
      C   87   -0.60784      1.99940     4.60005    0.00838     6.60784
      H   88    0.21601      0.00000     0.78276    0.00124     0.78399
      H   89    0.20488      0.00000     0.79362    0.00150     0.79512
      H   90    0.20162      0.00000     0.79691    0.00147     0.79838
      C   91   -0.59861      1.99940     4.59137    0.00784     6.59861
      H   92    0.19659      0.00000     0.80166    0.00175     0.80341
      H   93    0.21423      0.00000     0.78460    0.00117     0.78577
      H   94    0.21068      0.00000     0.78792    0.00140     0.78932
      C   95   -0.60563      1.99940     4.59780    0.00843     6.60563
      H   96    0.21740      0.00000     0.78129    0.00131     0.78260
      H   97    0.20462      0.00000     0.79396    0.00142     0.79538
      H   98    0.20466      0.00000     0.79337    0.00197     0.79534
      C   99   -0.60268      1.99940     4.59483    0.00845     6.60268
      H  100    0.20551      0.00000     0.79288    0.00160     0.79449
      H  101    0.21792      0.00000     0.78086    0.00122     0.78208
      H  102    0.20109      0.00000     0.79716    0.00175     0.79891
      C  103   -0.61354      1.99940     4.60630    0.00784     6.61354
      H  104    0.22197      0.00000     0.77693    0.00110     0.77803
      H  105    0.20961      0.00000     0.78892    0.00147     0.79039
      H  106    0.20843      0.00000     0.79011    0.00146     0.79157
      C  107   -0.60653      1.99939     4.59910    0.00804     6.60653
      H  108    0.21841      0.00000     0.78040    0.00118     0.78159
      H  109    0.21111      0.00000     0.78754    0.00135     0.78889
      H  110    0.20350      0.00000     0.79503    0.00147     0.79650
 =======================================================================
   * Total *    1.00000    129.95568   239.23769    0.80663   370.00000

 Normal termination of Gaussian 16 at Tue Jan 21 18:47:47 2025.
