 Gaussian 16, Revision B.01,
 Gaussian 16:  ES64L-G16RevB.01 20-Dec-2017

 ------------------------------------------
 # nmr=giao b3lyp/genecp pop=nbo scfcyc=200
 ------------------------------------------

 ----------
 MB-108_SPE
 ----------
 Symbolic Z-matrix:
 Charge =  1 Multiplicity = 1

                         Standard orientation:
 ---------------------------------------------------------------------
 Center     Atomic      Atomic             Coordinates (Angstroms)
 Number     Number       Type             X           Y           Z
 ---------------------------------------------------------------------
      1         15           0       -1.380879    0.834132    0.980981
      2         15           0        1.460530    0.398817    1.209001
      3          6           0       -2.309388    1.725113    2.320391
      4          1           0       -3.054917    2.372035    1.858401
      5          1           0       -1.609927    2.345072    2.880221
      6          1           0       -2.818459    1.045314    2.998491
      7          6           0       -0.154841   -0.275490    1.881791
      8          1           0       -0.290943   -1.324790    1.633701
      9          1           0       -0.221701   -0.159010    2.964091
     10          6           0        2.504511    0.891935    2.659421
     11          1           0        2.784009    0.057495    3.293691
     12          1           0        1.956152    1.626786    3.248431
     13          1           0        3.415461    1.356674    2.280721
     14          6           0        2.363847   -1.029544    0.408601
     15          6           0        2.710986   -2.174125    1.179501
     16          6           0        3.471974   -3.178166    0.583911
     17          1           0        3.743052   -4.044047    1.175651
     18          6           0        3.895234   -3.127577   -0.737799
     19          6           0        3.509676   -2.021956   -1.483299
     20          1           0        3.801676   -1.968007   -2.523969
     21          6           0        2.754148   -0.975365   -0.953849
     22          6           0        2.294945   -2.436344    2.628781
     23          1           0        1.671107   -1.616953    2.977161
     24          6           0        1.436563   -3.709393    2.745791
     25          1           0        0.585083   -3.685131    2.064351
     26          1           0        1.056553   -3.816692    3.764031
     27          1           0        2.014262   -4.605224    2.514491
     28          6           0        3.506345   -2.525596    3.575161
     29          1           0        4.124154   -3.394697    3.344361
     30          1           0        3.173095   -2.625666    4.610501
     31          1           0        4.148566   -1.645837    3.506211
     32          6           0        4.730032   -4.247358   -1.333369
     33          1           0        4.884301   -4.983439   -0.538569
     34          6           0        3.998151   -4.957357   -2.483799
     35          1           0        3.836772   -4.284917   -3.329619
     36          1           0        3.025110   -5.335056   -2.164219
     37          1           0        4.587899   -5.802998   -2.843089
     38          6           0        6.115393   -3.750821   -1.777759
     39          1           0        6.721482   -4.586612   -2.132909
     40          1           0        6.649514   -3.271322   -0.955389
     41          1           0        6.037464   -3.029101   -2.594309
     42          6           0        2.382259    0.134166   -1.932379
     43          1           0        1.819531    0.899537   -1.391459
     44          6           0        3.625221    0.806663   -2.537579
     45          1           0        4.291551    1.198482   -1.766399
     46          1           0        3.335152    1.631454   -3.191439
     47          1           0        4.205639    0.108033   -3.142309
     48          6           0        1.455209   -0.394283   -3.039729
     49          1           0        1.957577   -1.134074   -3.665659
     50          1           0        1.133930    0.423488   -3.688289
     51          1           0        0.565588   -0.865531   -2.618879
     52          6           0       -2.643441   -0.287346    0.168301
     53          6           0       -3.262433   -1.341355    0.897451
     54          6           0       -4.156704   -2.180923    0.237651
     55          1           0       -4.619536   -2.981073    0.800891
     56          6           0       -4.489724   -2.028003   -1.103619
     57          6           0       -3.906662   -0.969454   -1.785019
     58          1           0       -4.174742   -0.817703   -2.822449
     59          6           0       -3.000691   -0.091045   -1.189249
     60          6           0       -3.075403   -1.616155    2.390791
     61          1           0       -2.304412   -0.958097    2.781041
     62          6           0       -2.608496   -3.053776    2.675451
     63          1           0       -3.377357   -3.785445    2.423871
     64          1           0       -2.380816   -3.173456    3.736851
     65          1           0       -1.715026   -3.309738    2.104561
     66          6           0       -4.365153   -1.308793    3.175631
     67          1           0       -4.717761   -0.291463    2.996581
     68          1           0       -4.195873   -1.428923    4.248171
     69          1           0       -5.171094   -1.986632    2.890021
     70          6           0       -5.461716   -2.964221   -1.799309
     71          1           0       -5.554305   -2.612781   -2.831359
     72          6           0       -4.927428   -4.404962   -1.848589
     73          1           0       -4.833349   -4.829822   -0.846379
     74          1           0       -3.946738   -4.449804   -2.325969
     75          1           0       -5.608849   -5.042991   -2.414889
     76          6           0       -6.861886   -2.911869   -1.166929
     77          1           0       -7.556697   -3.535138   -1.733309
     78          1           0       -7.255084   -1.893688   -1.153259
     79          1           0       -6.850776   -3.281879   -0.139009
     80          6           0       -2.531769    1.092084   -2.027619
     81          1           0       -1.599408    1.452822   -1.593619
     82          6           0       -3.570957    2.227726   -1.950679
     83          1           0       -4.530458    1.895817   -2.352659
     84          1           0       -3.251626    3.094095   -2.534659
     85          1           0       -3.744776    2.554516   -0.923209
     86          6           0       -2.235840    0.747093   -3.494879
     87          1           0       -3.145480    0.546495   -4.063179
     88          1           0       -1.583931   -0.122018   -3.583399
     89          1           0       -1.740668    1.591052   -3.980409
     90         45           0        0.428513    2.299109    0.196091
     91          6           0        1.893606    3.829066    0.922511
     92          6           0        2.282305    3.429476   -0.347589
     93          6           0       -0.450854    4.007770   -1.059489
     94          6           0       -0.889644    4.146341    0.238791
     95          6           0        1.223598    5.148878    1.267491
     96          1           0        2.392645    3.350136    1.754281
     97          1           0        3.073954    2.691034   -0.407129
     98          6           0        2.031696    4.176436   -1.633549
     99          6           0        0.639717    4.832258   -1.713799
    100          1           0       -1.106655    3.483831   -1.742219
    101          6           0       -0.314942    5.072180    1.281561
    102          1           0       -1.883434    3.778373    0.461361
    103          1           0        1.567638    5.462927    2.254341
    104          1           0        1.561339    5.919817    0.575091
    105          1           0        2.812377    4.932355   -1.784719
    106          1           0        2.140595    3.470446   -2.458319
    107          1           0        0.660229    5.828458   -1.272809
    108          1           0        0.379988    4.975539   -2.763989
    109          1           0       -0.647763    4.722951    2.261281
    110          1           0       -0.743381    6.075151    1.162311
 ---------------------------------------------------------------------

 SCF Done:  E(RB3LYP) =  -2395.88136345     A.U. after   17 cycles

      1  P    Isotropic =   376.5356   Anisotropy =   118.0585

      2  P    Isotropic =   358.3178   Anisotropy =   108.9564

      3  C    Isotropic =   162.9507   Anisotropy =    29.1274

      4  H    Isotropic =    30.1474   Anisotropy =     6.5031

      5  H    Isotropic =    29.6597   Anisotropy =     7.5264

      6  H    Isotropic =    29.5306   Anisotropy =    10.1631

      7  C    Isotropic =   122.9702   Anisotropy =    61.0033

      8  H    Isotropic =    28.3156   Anisotropy =     8.4924

      9  H    Isotropic =    27.7906   Anisotropy =     4.5682

     10  C    Isotropic =   163.3725   Anisotropy =    28.0211

     11  H    Isotropic =    29.6892   Anisotropy =    11.3578

     12  H    Isotropic =    30.6047   Anisotropy =     7.4601

     13  H    Isotropic =    30.7536   Anisotropy =     6.7061

     14  C    Isotropic =    51.0386   Anisotropy =   117.1103

     15  C    Isotropic =    23.2999   Anisotropy =   196.1131

     16  C    Isotropic =    50.4918   Anisotropy =   151.2437

     17  H    Isotropic =    24.7949   Anisotropy =    12.4426

     18  C    Isotropic =    21.4036   Anisotropy =   219.9899

     19  C    Isotropic =    54.8401   Anisotropy =   179.5445

     20  H    Isotropic =    24.5392   Anisotropy =    15.6150

     21  C    Isotropic =    23.2451   Anisotropy =   205.9480

     22  C    Isotropic =   147.0083   Anisotropy =    13.9557

     23  H    Isotropic =    29.3154   Anisotropy =    12.1352

     24  C    Isotropic =   157.3303   Anisotropy =    34.9339

     25  H    Isotropic =    30.9796   Anisotropy =     8.5572

     26  H    Isotropic =    30.6840   Anisotropy =     9.2999

     27  H    Isotropic =    30.5930   Anisotropy =     7.7591

     28  C    Isotropic =   158.3866   Anisotropy =    37.8176

     29  H    Isotropic =    30.5238   Anisotropy =     8.5766

     30  H    Isotropic =    30.5646   Anisotropy =    10.7042

     31  H    Isotropic =    30.7579   Anisotropy =     7.0098

     32  C    Isotropic =   142.2382   Anisotropy =    27.1628

     33  H    Isotropic =    29.2298   Anisotropy =     6.4541

     34  C    Isotropic =   159.0983   Anisotropy =    35.3162

     35  H    Isotropic =    30.7639   Anisotropy =     5.4912

     36  H    Isotropic =    30.8519   Anisotropy =     7.2832

     37  H    Isotropic =    30.5470   Anisotropy =    11.0894

     38  C    Isotropic =   159.2465   Anisotropy =    36.1125

     39  H    Isotropic =    30.5428   Anisotropy =    11.4094

     40  H    Isotropic =    30.8023   Anisotropy =     8.1177

     41  H    Isotropic =    30.7738   Anisotropy =     5.8152

     42  C    Isotropic =   143.4177   Anisotropy =    20.7927

     43  H    Isotropic =    26.6688   Anisotropy =    14.1731

     44  C    Isotropic =   157.7541   Anisotropy =    36.5264

     45  H    Isotropic =    30.6717   Anisotropy =     6.3505

     46  H    Isotropic =    30.3034   Anisotropy =     8.0848

     47  H    Isotropic =    30.2791   Anisotropy =     9.0065

     48  C    Isotropic =   154.9874   Anisotropy =    36.0153

     49  H    Isotropic =    30.5315   Anisotropy =     7.7284

     50  H    Isotropic =    30.3251   Anisotropy =     7.9204

     51  H    Isotropic =    30.8320   Anisotropy =     8.8974

     52  C    Isotropic =    51.6590   Anisotropy =   123.2085

     53  C    Isotropic =    23.0141   Anisotropy =   196.8103

     54  C    Isotropic =    53.6853   Anisotropy =   180.3142

     55  H    Isotropic =    24.5946   Anisotropy =    14.8202

     56  C    Isotropic =    20.7972   Anisotropy =   219.6854

     57  C    Isotropic =    54.1107   Anisotropy =   150.0409

     58  H    Isotropic =    24.7733   Anisotropy =    13.2553

     59  C    Isotropic =    22.5082   Anisotropy =   202.3967

     60  C    Isotropic =   147.2342   Anisotropy =    13.4284

     61  H    Isotropic =    29.2180   Anisotropy =    12.6775

     62  C    Isotropic =   159.1632   Anisotropy =    33.2853

     63  H    Isotropic =    30.4339   Anisotropy =     8.0714

     64  H    Isotropic =    30.6659   Anisotropy =     9.0739

     65  H    Isotropic =    30.9147   Anisotropy =     9.0117

     66  C    Isotropic =   156.7533   Anisotropy =    39.7005

     67  H    Isotropic =    30.7860   Anisotropy =     6.8130

     68  H    Isotropic =    30.5408   Anisotropy =    10.7654

     69  H    Isotropic =    30.6455   Anisotropy =     8.3766

     70  C    Isotropic =   142.7870   Anisotropy =    26.3308

     71  H    Isotropic =    29.2348   Anisotropy =     6.2132

     72  C    Isotropic =   159.1349   Anisotropy =    35.4080

     73  H    Isotropic =    30.8751   Anisotropy =     5.4846

     74  H    Isotropic =    30.9139   Anisotropy =     7.2964

     75  H    Isotropic =    30.6139   Anisotropy =    11.0356

     76  C    Isotropic =   159.2772   Anisotropy =    36.3169

     77  H    Isotropic =    30.5586   Anisotropy =    11.3540

     78  H    Isotropic =    30.7747   Anisotropy =     8.1146

     79  H    Isotropic =    30.7368   Anisotropy =     6.0513

     80  C    Isotropic =   147.2740   Anisotropy =    13.6317

     81  H    Isotropic =    28.2093   Anisotropy =    15.0372

     82  C    Isotropic =   155.6015   Anisotropy =    40.2805

     83  H    Isotropic =    31.0029   Anisotropy =     8.6251

     84  H    Isotropic =    30.8332   Anisotropy =     8.0061

     85  H    Isotropic =    31.3754   Anisotropy =     4.8198

     86  C    Isotropic =   161.2535   Anisotropy =    30.5341

     87  H    Isotropic =    30.3370   Anisotropy =     9.0613

     88  H    Isotropic =    30.6773   Anisotropy =     7.6221

     89  H    Isotropic =    30.6564   Anisotropy =     7.4229

     90  Rh   Isotropic =  -397.1215   Anisotropy =   421.3881

     91  C    Isotropic =    78.7078   Anisotropy =   120.7309

     92  C    Isotropic =    88.6515   Anisotropy =   100.1696

     93  C    Isotropic =    75.5665   Anisotropy =   125.7287

     94  C    Isotropic =    76.7694   Anisotropy =   116.3758

     95  C    Isotropic =   153.6981   Anisotropy =    27.0952

     96  H    Isotropic =    26.9249   Anisotropy =     4.8563

     97  H    Isotropic =    27.3412   Anisotropy =     4.7801

     98  C    Isotropic =   146.9263   Anisotropy =    29.4501

     99  C    Isotropic =   155.1223   Anisotropy =    23.8253

    100  H    Isotropic =    26.9753   Anisotropy =     7.0230

    101  C    Isotropic =   147.5272   Anisotropy =    29.8251

    102  H    Isotropic =    26.6064   Anisotropy =     2.3847

    103  H    Isotropic =    29.7040   Anisotropy =    11.4120

    104  H    Isotropic =    29.6237   Anisotropy =     9.3917

    105  H    Isotropic =    29.0883   Anisotropy =    12.3962

    106  H    Isotropic =    28.8069   Anisotropy =     7.6067

    107  H    Isotropic =    29.8272   Anisotropy =     9.5864

    108  H    Isotropic =    29.7196   Anisotropy =    10.7802

    109  H    Isotropic =    28.9449   Anisotropy =     6.5190

    110  H    Isotropic =    29.1266   Anisotropy =    12.6478

 The electronic state is 1-A.
 Alpha  occ. eigenvalues --  -77.23407 -77.23132 -10.29893 -10.29308 -10.29225
 Alpha  occ. eigenvalues --  -10.29016 -10.28866 -10.28749 -10.28678 -10.28395
 Alpha  occ. eigenvalues --  -10.28263 -10.28261 -10.28121 -10.28086 -10.27911
 Alpha  occ. eigenvalues --  -10.27690 -10.27629 -10.27425 -10.27410 -10.27342
 Alpha  occ. eigenvalues --  -10.27232 -10.26963 -10.26941 -10.26777 -10.26612
 Alpha  occ. eigenvalues --  -10.25767 -10.25642 -10.25558 -10.25468 -10.25394
 Alpha  occ. eigenvalues --  -10.25257 -10.24953 -10.24851 -10.24842 -10.24780
 Alpha  occ. eigenvalues --  -10.24748 -10.24688 -10.24526 -10.24403 -10.23224
 Alpha  occ. eigenvalues --  -10.23174 -10.23132 -10.23081  -6.69340  -6.69038
 Alpha  occ. eigenvalues --   -4.85623  -4.85556  -4.85332  -4.85259  -4.85256
 Alpha  occ. eigenvalues --   -4.84941  -3.31776  -2.08571  -2.07953  -2.05330
 Alpha  occ. eigenvalues --   -0.96353  -0.96158  -0.94611  -0.91032  -0.90845
 Alpha  occ. eigenvalues --   -0.90333  -0.89969  -0.89194  -0.88304  -0.88100
 Alpha  occ. eigenvalues --   -0.86488  -0.86292  -0.84950  -0.81622  -0.81567
 Alpha  occ. eigenvalues --   -0.81476  -0.81277  -0.81100  -0.80379  -0.77891
 Alpha  occ. eigenvalues --   -0.77488  -0.77394  -0.77301  -0.77153  -0.75775
 Alpha  occ. eigenvalues --   -0.75681  -0.72779  -0.72359  -0.72113  -0.71466
 Alpha  occ. eigenvalues --   -0.70618  -0.68967  -0.68874  -0.67105  -0.66433
 Alpha  occ. eigenvalues --   -0.66069  -0.64353  -0.64042  -0.63303  -0.63137
 Alpha  occ. eigenvalues --   -0.62516  -0.60355  -0.59040  -0.58782  -0.58185
 Alpha  occ. eigenvalues --   -0.57428  -0.56910  -0.56474  -0.55664  -0.54910
 Alpha  occ. eigenvalues --   -0.54308  -0.54034  -0.53884  -0.53775  -0.53697
 Alpha  occ. eigenvalues --   -0.53586  -0.53254  -0.53174  -0.53007  -0.52715
 Alpha  occ. eigenvalues --   -0.52616  -0.52273  -0.52150  -0.51598  -0.51314
 Alpha  occ. eigenvalues --   -0.51142  -0.50787  -0.50711  -0.50608  -0.50441
 Alpha  occ. eigenvalues --   -0.49967  -0.49653  -0.49470  -0.48904  -0.48795
 Alpha  occ. eigenvalues --   -0.48220  -0.47959  -0.47586  -0.47522  -0.47393
 Alpha  occ. eigenvalues --   -0.47310  -0.46814  -0.46588  -0.46415  -0.46266
 Alpha  occ. eigenvalues --   -0.46047  -0.45946  -0.45849  -0.45734  -0.45407
 Alpha  occ. eigenvalues --   -0.44854  -0.44609  -0.44438  -0.44011  -0.43973
 Alpha  occ. eigenvalues --   -0.43853  -0.43475  -0.43284  -0.43140  -0.42922
 Alpha  occ. eigenvalues --   -0.42813  -0.42736  -0.42396  -0.42285  -0.41658
 Alpha  occ. eigenvalues --   -0.41598  -0.41452  -0.41397  -0.41089  -0.40947
 Alpha  occ. eigenvalues --   -0.40260  -0.40147  -0.39842  -0.39645  -0.37090
 Alpha  occ. eigenvalues --   -0.36422  -0.35305  -0.34424  -0.34013  -0.33571
 Alpha  occ. eigenvalues --   -0.33203  -0.33157  -0.32981  -0.30962
 Alpha virt. eigenvalues --   -0.16027  -0.14467  -0.12296  -0.11657  -0.10288
 Alpha virt. eigenvalues --   -0.10173  -0.09487  -0.08218  -0.07077  -0.06834
 Alpha virt. eigenvalues --   -0.06789  -0.06555  -0.05779  -0.05373  -0.04567

 Mulliken charges:
               1
     1  P    0.236251
     2  P    0.332629
     3  C   -0.465936
     4  H    0.161031
     5  H    0.149299
     6  H    0.189398
     7  C   -0.582613
     8  H    0.227103
     9  H    0.205248
    10  C   -0.483187
    11  H    0.194684
    12  H    0.155596
    13  H    0.170010
    14  C   -0.251925
    15  C    0.278764
    16  C   -0.272994
    17  H    0.119596
    18  C    0.191188
    19  C   -0.314068
    20  H    0.129330
    21  C    0.240435
    22  C   -0.203646
    23  H    0.139561
    24  C   -0.375950
    25  H    0.124241
    26  H    0.140827
    27  H    0.143255
    28  C   -0.375931
    29  H    0.142761
    30  H    0.143164
    31  H    0.125742
    32  C   -0.123341
    33  H    0.135535
    34  C   -0.372572
    35  H    0.119045
    36  H    0.124904
    37  H    0.141487
    38  C   -0.372973
    39  H    0.141269
    40  H    0.126178
    41  H    0.119419
    42  C   -0.155945
    43  H    0.206485
    44  C   -0.399040
    45  H    0.129011
    46  H    0.136784
    47  H    0.146226
    48  C   -0.394252
    49  H    0.143719
    50  H    0.134304
    51  H    0.127657
    52  C   -0.214771
    53  C    0.269643
    54  C   -0.296502
    55  H    0.129945
    56  C    0.169142
    57  C   -0.247741
    58  H    0.112531
    59  C    0.264426
    60  C   -0.151731
    61  H    0.122486
    62  C   -0.377792
    63  H    0.143638
    64  H    0.139917
    65  H    0.121198
    66  C   -0.380587
    67  H    0.126023
    68  H    0.141115
    69  H    0.143155
    70  C   -0.125452
    71  H    0.136554
    72  C   -0.374497
    73  H    0.119065
    74  H    0.124132
    75  H    0.140892
    76  C   -0.372304
    77  H    0.141241
    78  H    0.126291
    79  H    0.118827
    80  C   -0.234830
    81  H    0.179922
    82  C   -0.369614
    83  H    0.151504
    84  H    0.137843
    85  H    0.112756
    86  C   -0.399461
    87  H    0.142798
    88  H    0.148009
    89  H    0.131219
    90  Rh  -0.630620
    91  C   -0.024363
    92  C   -0.112963
    93  C   -0.011026
    94  C   -0.069032
    95  C   -0.349091
    96  H    0.204032
    97  H    0.203275
    98  C   -0.226971
    99  C   -0.357788
   100  H    0.184066
   101  C   -0.239724
   102  H    0.170909
   103  H    0.166733
   104  H    0.171946
   105  H    0.170208
   106  H    0.130117
   107  H    0.171137
   108  H    0.170063
   109  H    0.131200
   110  H    0.171139
 Sum of Mulliken charges =   1.00000

 Dipole moment (field-independent basis, Debye):
    X=              0.5535    Y=              2.7702    Z=              2.4715  Tot=              3.7534
 Quadrupole moment (field-independent basis, Debye-Ang):
   XX=           -254.9672   YY=           -245.7306   ZZ=           -269.8083
   XY=              1.2080   XZ=              0.9137   YZ=             -0.5545

 Summary of Natural Population Analysis:

                                       Natural Population
                Natural  -----------------------------------------------
    Atom  No    Charge         Core      Valence    Rydberg      Total
 -----------------------------------------------------------------------
      P    1    1.03368      9.99692     3.92188    0.04752    13.96632
      P    2    1.08943      9.99668     3.86465    0.04924    13.91057
      C    3   -0.88847      1.99941     4.87869    0.01037     6.88847
      H    4    0.23783      0.00000     0.76091    0.00126     0.76217
      H    5    0.23479      0.00000     0.76379    0.00143     0.76521
      H    6    0.23639      0.00000     0.76175    0.00186     0.76361
      C    7   -0.99761      1.99943     4.98231    0.01588     6.99761
      H    8    0.26694      0.00000     0.73098    0.00209     0.73306
      H    9    0.25538      0.00000     0.74288    0.00175     0.74462
      C   10   -0.89666      1.99941     4.88697    0.01027     6.89666
      H   11    0.24053      0.00000     0.75766    0.00181     0.75947
      H   12    0.23563      0.00000     0.76307    0.00130     0.76437
      H   13    0.24107      0.00000     0.75773    0.00119     0.75893
      C   14   -0.34728      1.99884     4.32450    0.02394     6.34728
      C   15    0.02571      1.99902     3.95352    0.02175     5.97429
      C   16   -0.21218      1.99900     4.19984    0.01335     6.21218
      H   17    0.20729      0.00000     0.79011    0.00260     0.79271
      C   18    0.04387      1.99906     3.93688    0.02018     5.95613
      C   19   -0.21501      1.99897     4.20318    0.01286     6.21501
      H   20    0.20755      0.00000     0.78933    0.00311     0.79245
      C   21    0.02863      1.99904     3.95123    0.02110     5.97137
      C   22   -0.23390      1.99936     4.22182    0.01272     6.23390
      H   23    0.19164      0.00000     0.80471    0.00365     0.80836
      C   24   -0.58043      1.99942     4.57313    0.00788     6.58043
      H   25    0.20185      0.00000     0.79665    0.00150     0.79815
      H   26    0.20997      0.00000     0.78877    0.00126     0.79003
      H   27    0.20750      0.00000     0.79125    0.00125     0.79250
      C   28   -0.58732      1.99942     4.58002    0.00788     6.58732
      H   29    0.20983      0.00000     0.78893    0.00123     0.79017
      H   30    0.21113      0.00000     0.78768    0.00119     0.78887
      H   31    0.20453      0.00000     0.79417    0.00130     0.79547
      C   32   -0.22674      1.99937     4.21513    0.01224     6.22674
      H   33    0.19944      0.00000     0.79851    0.00205     0.80056
      C   34   -0.58082      1.99943     4.57427    0.00712     6.58082
      H   35    0.19701      0.00000     0.80164    0.00135     0.80299
      H   36    0.20780      0.00000     0.79103    0.00117     0.79220
      H   37    0.21267      0.00000     0.78613    0.00120     0.78733
      C   38   -0.58080      1.99943     4.57425    0.00713     6.58080
      H   39    0.21262      0.00000     0.78618    0.00120     0.78738
      H   40    0.20855      0.00000     0.79029    0.00116     0.79145
      H   41    0.19727      0.00000     0.80139    0.00134     0.80273
      C   42   -0.22873      1.99935     4.21644    0.01294     6.22873
      H   43    0.21398      0.00000     0.78148    0.00454     0.78602
      C   44   -0.58474      1.99942     4.57738    0.00794     6.58474
      H   45    0.20396      0.00000     0.79483    0.00120     0.79604
      H   46    0.20466      0.00000     0.79394    0.00141     0.79534
      H   47    0.20933      0.00000     0.78942    0.00125     0.79067
      C   48   -0.58080      1.99942     4.57361    0.00776     6.58080
      H   49    0.20603      0.00000     0.79268    0.00129     0.79397
      H   50    0.20605      0.00000     0.79256    0.00139     0.79395
      H   51    0.20680      0.00000     0.79184    0.00136     0.79320
      C   52   -0.34345      1.99884     4.32098    0.02363     6.34345
      C   53    0.02329      1.99902     3.95604    0.02166     5.97671
      C   54   -0.21728      1.99897     4.20532    0.01298     6.21728
      H   55    0.20746      0.00000     0.78941    0.00313     0.79254
      C   56    0.04462      1.99906     3.93616    0.02016     5.95538
      C   57   -0.21682      1.99900     4.20430    0.01352     6.21682
      H   58    0.20961      0.00000     0.78780    0.00260     0.79039
      C   59    0.03159      1.99904     3.94880    0.02057     5.96841
      C   60   -0.23360      1.99936     4.22147    0.01277     6.23360
      H   61    0.19197      0.00000     0.80423    0.00380     0.80803
      C   62   -0.58271      1.99942     4.57541    0.00789     6.58271
      H   63    0.20671      0.00000     0.79206    0.00123     0.79329
      H   64    0.20969      0.00000     0.78905    0.00125     0.79031
      H   65    0.20156      0.00000     0.79692    0.00152     0.79844
      C   66   -0.58463      1.99942     4.57738    0.00782     6.58463
      H   67    0.20498      0.00000     0.79372    0.00130     0.79502
      H   68    0.20975      0.00000     0.78904    0.00121     0.79025
      H   69    0.20928      0.00000     0.78946    0.00126     0.79072
      C   70   -0.22691      1.99937     4.21526    0.01228     6.22691
      H   71    0.19967      0.00000     0.79829    0.00204     0.80033
      C   72   -0.58072      1.99943     4.57418    0.00711     6.58072
      H   73    0.19711      0.00000     0.80155    0.00135     0.80289
      H   74    0.20751      0.00000     0.79131    0.00117     0.79249
      H   75    0.21230      0.00000     0.78650    0.00121     0.78770
      C   76   -0.58117      1.99943     4.57461    0.00713     6.58117
      H   77    0.21257      0.00000     0.78623    0.00120     0.78743
      H   78    0.20854      0.00000     0.79030    0.00116     0.79146
      H   79    0.19684      0.00000     0.80182    0.00134     0.80316
      C   80   -0.23843      1.99937     4.22710    0.01197     6.23843
      H   81    0.21300      0.00000     0.78339    0.00361     0.78700
      C   82   -0.58325      1.99942     4.57613    0.00771     6.58325
      H   83    0.21455      0.00000     0.78414    0.00131     0.78545
      H   84    0.20526      0.00000     0.79344    0.00130     0.79474
      H   85    0.19726      0.00000     0.80144    0.00130     0.80274
      C   86   -0.58761      1.99943     4.58037    0.00782     6.58761
      H   87    0.20406      0.00000     0.79465    0.00130     0.79594
      H   88    0.21238      0.00000     0.78628    0.00134     0.78762
      H   89    0.20652      0.00000     0.79219    0.00129     0.79348
     Rh   90   -0.34605     35.98630     9.33408    0.02567    45.34605
      C   91   -0.14689      1.99906     4.12839    0.01944     6.14689
      C   92   -0.18946      1.99907     4.17042    0.01998     6.18946
      C   93   -0.17696      1.99907     4.15845    0.01945     6.17696
      C   94   -0.15724      1.99908     4.13742    0.02074     6.15724
      C   95   -0.42512      1.99936     4.41353    0.01223     6.42512
      H   96    0.21859      0.00000     0.77936    0.00205     0.78141
      H   97    0.22505      0.00000     0.77277    0.00217     0.77495
      C   98   -0.41582      1.99935     4.40347    0.01300     6.41582
      C   99   -0.42305      1.99936     4.41186    0.01183     6.42305
      H  100    0.22845      0.00000     0.76925    0.00230     0.77155
      C  101   -0.41728      1.99935     4.40468    0.01325     6.41728
      H  102    0.22053      0.00000     0.77697    0.00250     0.77947
      H  103    0.22696      0.00000     0.77160    0.00144     0.77304
      H  104    0.21656      0.00000     0.78148    0.00196     0.78344
      H  105    0.23148      0.00000     0.76652    0.00201     0.76852
      H  106    0.21485      0.00000     0.78301    0.00214     0.78515
      H  107    0.21474      0.00000     0.78330    0.00197     0.78526
      H  108    0.22835      0.00000     0.77018    0.00147     0.77165
      H  109    0.21192      0.00000     0.78640    0.00168     0.78808
      H  110    0.23310      0.00000     0.76502    0.00188     0.76690
 =======================================================================
   * Total *    1.00000    137.94897   247.25691    0.79412   386.00000

 Normal termination of Gaussian 16 at Tue Jan 21 19:23:32 2025.
