 Gaussian 16, Revision B.01,
 Gaussian 16:  ES64L-G16RevB.01 20-Dec-2017

 ------------------------------------------
 # nmr=giao b3lyp/genecp pop=nbo scfcyc=200
 ------------------------------------------

 ----------
 MB-105_SPE
 ----------
 Symbolic Z-matrix:
 Charge =  1 Multiplicity = 1

                         Standard orientation:
 ---------------------------------------------------------------------
 Center     Atomic      Atomic             Coordinates (Angstroms)
 Number     Number       Type             X           Y           Z
 ---------------------------------------------------------------------
      1         15           0       -2.740370   -1.387621    0.463199
      2         15           0       -0.205240   -0.387011    0.001109
      3          6           0        4.181300   -1.657780   -0.206061
      4          8           0        0.838040   -0.461451   -1.273121
      5          6           0        3.037390   -0.798610   -0.337721
      6          6           0       -2.118080   -0.853731    3.121339
      7          1           0       -2.401780   -0.867591    4.176679
      8          1           0       -2.039840    0.190449    2.811489
      9          1           0       -1.129670   -1.306161    3.045829
     10          8           0        0.818130   -0.272271    1.300059
     11          6           0       -3.297120   -2.115491   -2.158071
     12          1           0       -2.238790   -2.314111   -2.335011
     13          1           0       -3.479220   -1.062641   -2.371881
     14          1           0       -3.861750   -2.711502   -2.879501
     15          6           0       -3.743500   -2.506972   -0.736281
     16          6           0       -3.192280   -1.610671    2.317259
     17          6           0       -0.964370   -2.030651    0.320859
     18          1           0       -0.570230   -2.553451    1.190859
     19          1           0       -0.850870   -2.670011   -0.553911
     20          6           0        4.277470   -2.829230   -1.023291
     21          6           0        2.020070   -1.216680   -1.170061
     22          6           0        6.399000   -3.396189    0.005679
     23          1           0        7.258150   -4.048909    0.093579
     24          6           0        5.853599    2.532050   -0.714821
     25          1           0        6.654659    2.485361   -1.441881
     26          6           0        4.950539    1.502150   -0.632371
     27          1           0        5.046449    0.654030   -1.294891
     28          6           0       -3.218590   -3.080281    2.760229
     29          1           0       -3.302770   -3.117011    3.849649
     30          1           0       -2.310220   -3.620751    2.489119
     31          1           0       -4.074330   -3.617802    2.354349
     32          6           0       -3.476200   -4.006341   -0.531201
     33          1           0       -3.997999   -4.562992   -1.314401
     34          1           0       -3.841950   -4.372772    0.424839
     35          1           0       -2.418260   -4.260031   -0.611681
     36          6           0        2.106350   -2.361070   -1.981621
     37          1           0        1.289650   -2.591670   -2.653101
     38          6           0        1.831389    0.695430    1.238729
     39          6           0       -4.553720   -0.956272    2.605749
     40          1           0       -5.375760   -1.423822    2.067269
     41          1           0       -4.547680    0.108588    2.372799
     42          1           0       -4.767960   -1.052182    3.673159
     43          6           0        5.411220   -3.671150   -0.902971
     44          1           0        5.476561   -4.546990   -1.537651
     45          6           0        3.884859    1.536970    0.302599
     46          6           0        5.212200   -1.419760    0.738329
     47          1           0        5.144080   -0.563270    1.393249
     48          6           0        2.916229    0.482710    0.413189
     49          6           0        6.287510   -2.265969    0.841389
     50          1           0        7.057630   -2.066159    1.575899
     51          6           0        3.757299    2.695530    1.133999
     52          6           0        4.719119    3.731760    1.034999
     53          1           0        4.618689    4.596450    1.680369
     54          6           0        3.228870   -3.140650   -1.921911
     55          1           0        3.318160   -4.017260   -2.552011
     56          6           0        1.699519    1.825190    2.064779
     57          1           0        0.845879    1.894249    2.726019
     58          6           0        5.748329    3.653240    0.133939
     59          1           0        6.474699    4.452801    0.062859
     60          6           0        2.661979    2.797140    2.025979
     61          1           0        2.585989    3.666030    2.668549
     62          6           0       -5.246920   -2.223842   -0.587191
     63          1           0       -5.783170   -2.715202   -1.402871
     64          1           0       -5.480160   -1.158732   -0.638831
     65          1           0       -5.649330   -2.618092    0.345119
     66         45           0       -2.082251    0.847589   -0.277041
     67          6           0       -4.035881    1.756708   -1.224781
     68          6           0       -3.979671    2.120768    0.093819
     69          6           0       -1.217241    2.925829   -0.498431
     70          6           0       -1.195621    2.295979   -1.730591
     71          6           0       -3.656271    2.628358   -2.403971
     72          1           0       -4.605271    0.865798   -1.463451
     73          1           0       -4.537771    1.511578    0.795819
     74          6           0       -3.457691    3.417679    0.657959
     75          6           0       -2.214081    3.984459   -0.061251
     76          1           0       -0.302111    2.886769    0.082249
     77          6           0       -2.188971    2.462729   -2.852731
     78          1           0       -0.260591    1.837289   -2.034751
     79          1           0       -4.305201    2.372728   -3.243351
     80          1           0       -3.866991    3.670798   -2.168201
     81          1           0       -4.260111    4.165848    0.654689
     82          1           0       -3.216221    3.248869    1.709559
     83          1           0       -2.513071    4.584689   -0.920441
     84          1           0       -1.710161    4.670949    0.620759
     85          1           0       -2.107591    1.585809   -3.498521
     86          1           0       -1.895891    3.317759   -3.474821
 ---------------------------------------------------------------------

 SCF Done:  E(RB3LYP) =  -2380.66073664     A.U. after   19 cycles

      1  P    Isotropic =   278.9178   Anisotropy =   131.7684

      2  P    Isotropic =   131.5202   Anisotropy =   223.8635

      3  C    Isotropic =    44.3800   Anisotropy =   202.8653

      4  O    Isotropic =   152.9714   Anisotropy =    40.5978

      5  C    Isotropic =    53.0069   Anisotropy =   137.8102

      6  C    Isotropic =   150.8652   Anisotropy =    40.0953

      7  H    Isotropic =    30.7149   Anisotropy =     9.5604

      8  H    Isotropic =    29.8817   Anisotropy =     6.6661

      9  H    Isotropic =    30.2230   Anisotropy =     6.6836

     10  O    Isotropic =   144.8387   Anisotropy =    86.5653

     11  C    Isotropic =   151.5738   Anisotropy =    41.4981

     12  H    Isotropic =    30.2713   Anisotropy =     6.3316

     13  H    Isotropic =    29.9838   Anisotropy =     7.5841

     14  H    Isotropic =    30.7331   Anisotropy =    10.1004

     15  C    Isotropic =   135.5437   Anisotropy =    32.7194

     16  C    Isotropic =   133.9465   Anisotropy =    34.7123

     17  C    Isotropic =   130.9143   Anisotropy =    63.5386

     18  H    Isotropic =    28.7622   Anisotropy =     4.9411

     19  H    Isotropic =    28.2388   Anisotropy =     7.0578

     20  C    Isotropic =    45.6718   Anisotropy =   213.4565

     21  C    Isotropic =    28.5902   Anisotropy =   107.1865

     22  C    Isotropic =    51.8126   Anisotropy =   187.1041

     23  H    Isotropic =    24.0185   Anisotropy =     4.3547

     24  C    Isotropic =    50.2760   Anisotropy =   187.2396

     25  H    Isotropic =    24.2842   Anisotropy =     7.6850

     26  C    Isotropic =    50.9635   Anisotropy =   177.5351

     27  H    Isotropic =    24.5382   Anisotropy =    14.4594

     28  C    Isotropic =   157.7156   Anisotropy =    34.5986

     29  H    Isotropic =    30.7893   Anisotropy =    10.7796

     30  H    Isotropic =    30.7851   Anisotropy =     6.2193

     31  H    Isotropic =    30.5985   Anisotropy =     8.4486

     32  C    Isotropic =   158.3238   Anisotropy =    38.3235

     33  H    Isotropic =    30.7749   Anisotropy =    11.0400

     34  H    Isotropic =    30.5237   Anisotropy =     7.8277

     35  H    Isotropic =    30.7882   Anisotropy =     6.6072

     36  C    Isotropic =    61.9816   Anisotropy =   143.5092

     37  H    Isotropic =    24.3894   Anisotropy =     8.5550

     38  C    Isotropic =    29.4831   Anisotropy =   110.5512

     39  C    Isotropic =   154.9332   Anisotropy =    40.1278

     40  H    Isotropic =    30.2984   Anisotropy =     7.1844

     41  H    Isotropic =    30.5320   Anisotropy =     6.4567

     42  H    Isotropic =    30.6171   Anisotropy =    10.5524

     43  C    Isotropic =    50.7086   Anisotropy =   165.3847

     44  H    Isotropic =    23.6404   Anisotropy =     7.5739

     45  C    Isotropic =    45.1281   Anisotropy =   204.9047

     46  C    Isotropic =    52.1178   Anisotropy =   179.4688

     47  H    Isotropic =    24.5773   Anisotropy =    15.0861

     48  C    Isotropic =    52.7808   Anisotropy =   138.9930

     49  C    Isotropic =    50.4852   Anisotropy =   187.3593

     50  H    Isotropic =    24.2659   Anisotropy =     8.0148

     51  C    Isotropic =    45.7512   Anisotropy =   213.5532

     52  C    Isotropic =    50.0166   Anisotropy =   162.9217

     53  H    Isotropic =    23.7404   Anisotropy =     7.6340

     54  C    Isotropic =    47.1148   Anisotropy =   164.0401

     55  H    Isotropic =    23.6214   Anisotropy =     7.5616

     56  C    Isotropic =    61.7845   Anisotropy =   147.5709

     57  H    Isotropic =    24.2880   Anisotropy =     7.7751

     58  C    Isotropic =    51.0087   Anisotropy =   185.0606

     59  H    Isotropic =    24.0761   Anisotropy =     4.3513

     60  C    Isotropic =    47.4450   Anisotropy =   164.4206

     61  H    Isotropic =    23.6686   Anisotropy =     7.6714

     62  C    Isotropic =   155.7992   Anisotropy =    35.5795

     63  H    Isotropic =    30.6090   Anisotropy =    10.6057

     64  H    Isotropic =    30.8895   Anisotropy =     5.3804

     65  H    Isotropic =    30.4432   Anisotropy =     7.9806

     66  Rh   Isotropic =  -322.8632   Anisotropy =   383.1981

     67  C    Isotropic =    65.7607   Anisotropy =   140.3930

     68  C    Isotropic =    68.2320   Anisotropy =   130.2770

     69  C    Isotropic =    85.1420   Anisotropy =   113.8904

     70  C    Isotropic =    77.9733   Anisotropy =   117.2670

     71  C    Isotropic =   154.0959   Anisotropy =    25.3544

     72  H    Isotropic =    26.2988   Anisotropy =     5.5067

     73  H    Isotropic =    25.7331   Anisotropy =     3.4846

     74  C    Isotropic =   149.4246   Anisotropy =    26.8649

     75  C    Isotropic =   154.3142   Anisotropy =    23.6714

     76  H    Isotropic =    27.5703   Anisotropy =    10.5290

     77  C    Isotropic =   147.2605   Anisotropy =    31.3224

     78  H    Isotropic =    26.4809   Anisotropy =     3.9021

     79  H    Isotropic =    29.9029   Anisotropy =    11.6757

     80  H    Isotropic =    29.7983   Anisotropy =     9.2382

     81  H    Isotropic =    29.1688   Anisotropy =    12.6103

     82  H    Isotropic =    29.1353   Anisotropy =     6.8601

     83  H    Isotropic =    29.9086   Anisotropy =     9.3621

     84  H    Isotropic =    29.9563   Anisotropy =    10.8961

     85  H    Isotropic =    29.1558   Anisotropy =     7.0517

     86  H    Isotropic =    29.2693   Anisotropy =    11.9521

 The electronic state is 1-A.
 Alpha  occ. eigenvalues --  -77.30597 -77.23279 -19.27264 -19.26991 -10.33481
 Alpha  occ. eigenvalues --  -10.33479 -10.31597 -10.31445 -10.30310 -10.29988
 Alpha  occ. eigenvalues --  -10.29876 -10.29321 -10.29027 -10.28641 -10.28593
 Alpha  occ. eigenvalues --  -10.28147 -10.27913 -10.27852 -10.27825 -10.27735
 Alpha  occ. eigenvalues --  -10.27667 -10.27269 -10.27196 -10.27126 -10.27104
 Alpha  occ. eigenvalues --  -10.27084 -10.27036 -10.27013 -10.26919 -10.26871
 Alpha  occ. eigenvalues --  -10.26812 -10.26808 -10.26696 -10.25723 -10.25581
 Alpha  occ. eigenvalues --  -10.25568 -10.25502 -10.25449 -10.25417 -10.25383
 Alpha  occ. eigenvalues --  -10.25276  -6.75686  -6.69251  -4.92158  -4.91960
 Alpha  occ. eigenvalues --   -4.91476  -4.85567  -4.85413  -4.85155  -3.32346
 Alpha  occ. eigenvalues --   -2.09377  -2.08519  -2.05720  -1.18806  -1.14870
 Alpha  occ. eigenvalues --   -0.97780  -0.96165  -0.95035  -0.93947  -0.92050
 Alpha  occ. eigenvalues --   -0.91946  -0.90986  -0.89751  -0.88964  -0.88543
 Alpha  occ. eigenvalues --   -0.87359  -0.84983  -0.83332  -0.82946  -0.82168
 Alpha  occ. eigenvalues --   -0.80908  -0.80197  -0.80059  -0.79977  -0.79404
 Alpha  occ. eigenvalues --   -0.79342  -0.78371  -0.76463  -0.73344  -0.72194
 Alpha  occ. eigenvalues --   -0.71692  -0.71085  -0.70673  -0.69855  -0.68124
 Alpha  occ. eigenvalues --   -0.66570  -0.66484  -0.66288  -0.64301  -0.63309
 Alpha  occ. eigenvalues --   -0.62962  -0.61840  -0.61226  -0.60735  -0.59940
 Alpha  occ. eigenvalues --   -0.59699  -0.58548  -0.58400  -0.57797  -0.56955
 Alpha  occ. eigenvalues --   -0.56708  -0.56649  -0.55790  -0.55503  -0.55285
 Alpha  occ. eigenvalues --   -0.54943  -0.54347  -0.54165  -0.54045  -0.53937
 Alpha  occ. eigenvalues --   -0.53113  -0.53077  -0.53040  -0.52794  -0.52663
 Alpha  occ. eigenvalues --   -0.51842  -0.51357  -0.51027  -0.50952  -0.50713
 Alpha  occ. eigenvalues --   -0.50417  -0.49939  -0.49270  -0.48930  -0.48812
 Alpha  occ. eigenvalues --   -0.48394  -0.48336  -0.48165  -0.48049  -0.47733
 Alpha  occ. eigenvalues --   -0.47366  -0.47097  -0.46659  -0.46521  -0.45988
 Alpha  occ. eigenvalues --   -0.45551  -0.45289  -0.44999  -0.44777  -0.44314
 Alpha  occ. eigenvalues --   -0.43809  -0.43621  -0.43536  -0.43423  -0.43341
 Alpha  occ. eigenvalues --   -0.42911  -0.41801  -0.41547  -0.41285  -0.40970
 Alpha  occ. eigenvalues --   -0.40767  -0.40674  -0.38411  -0.37766  -0.37058
 Alpha  occ. eigenvalues --   -0.36834  -0.35779  -0.35471  -0.34441  -0.33469
 Alpha  occ. eigenvalues --   -0.33174  -0.31435  -0.30967  -0.30145
 Alpha virt. eigenvalues --   -0.17198  -0.14987  -0.14365  -0.12851  -0.10737
 Alpha virt. eigenvalues --   -0.10287  -0.09987  -0.08787  -0.08229  -0.07908
 Alpha virt. eigenvalues --   -0.07438  -0.07074  -0.06664  -0.06208  -0.06022

 Mulliken charges:
               1
     1  P    0.327273
     2  P    0.817762
     3  C   -0.006753
     4  O   -0.334795
     5  C    0.012974
     6  C   -0.427574
     7  H    0.158143
     8  H    0.152462
     9  H    0.157123
    10  O   -0.323877
    11  C   -0.375445
    12  H    0.133693
    13  H    0.137873
    14  H    0.159217
    15  C   -0.075049
    16  C    0.005656
    17  C   -0.633431
    18  H    0.220010
    19  H    0.210175
    20  C    0.033486
    21  C    0.127466
    22  C   -0.085437
    23  H    0.124679
    24  C   -0.071472
    25  H    0.123763
    26  C   -0.112071
    27  H    0.154111
    28  C   -0.380095
    29  H    0.153400
    30  H    0.140105
    31  H    0.139533
    32  C   -0.351836
    33  H    0.151557
    34  H    0.149183
    35  H    0.133480
    36  C   -0.166005
    37  H    0.130013
    38  C    0.078358
    39  C   -0.404207
    40  H    0.151784
    41  H    0.125906
    42  H    0.157955
    43  C   -0.133148
    44  H    0.117797
    45  C    0.036260
    46  C   -0.119243
    47  H    0.154546
    48  C    0.012120
    49  C   -0.070296
    50  H    0.123058
    51  C    0.017277
    52  C   -0.144029
    53  H    0.116181
    54  C   -0.167419
    55  H    0.119579
    56  C   -0.213997
    57  H    0.129494
    58  C   -0.082516
    59  H    0.124818
    60  C   -0.126272
    61  H    0.118510
    62  C   -0.418290
    63  H    0.156877
    64  H    0.143398
    65  H    0.148893
    66  Rh  -0.548846
    67  C   -0.027622
    68  C   -0.097215
    69  C   -0.051692
    70  C   -0.100901
    71  C   -0.352392
    72  H    0.169187
    73  H    0.188926
    74  C   -0.218456
    75  C   -0.362588
    76  H    0.242705
    77  C   -0.226094
    78  H    0.217219
    79  H    0.170947
    80  H    0.168691
    81  H    0.177098
    82  H    0.134962
    83  H    0.169629
    84  H    0.170545
    85  H    0.138509
    86  H    0.174696
 Sum of Mulliken charges =   1.00000

 Dipole moment (field-independent basis, Debye):
    X=             -5.7803    Y=             -0.5240    Z=             -0.0530  Tot=              5.8042
 Quadrupole moment (field-independent basis, Debye-Ang):
   XX=           -193.4914   YY=           -225.0465   ZZ=           -256.5829
   XY=              2.6358   XZ=             -0.5371   YZ=              4.9291

 Summary of Natural Population Analysis:

                                       Natural Population
                Natural  -----------------------------------------------
    Atom  No    Charge         Core      Valence    Rydberg      Total
 -----------------------------------------------------------------------
      P    1    1.06224      9.99690     3.89548    0.04538    13.93776
      P    2    1.73565      9.99565     3.17950    0.08920    13.26435
      C    3   -0.03105      1.99904     4.01520    0.01682     6.03105
      O    4   -0.74296      1.99980     6.73027    0.01289     8.74296
      C    5   -0.06320      1.99887     4.04422    0.02010     6.06320
      C    6   -0.60563      1.99935     4.59782    0.00846     6.60563
      H    7    0.22416      0.00000     0.77405    0.00179     0.77584
      H    8    0.21788      0.00000     0.78057    0.00155     0.78212
      H    9    0.21559      0.00000     0.78271    0.00170     0.78441
      O   10   -0.74164      1.99980     6.72724    0.01459     8.74164
      C   11   -0.59864      1.99936     4.59087    0.00841     6.59864
      H   12    0.20549      0.00000     0.79292    0.00159     0.79451
      H   13    0.21683      0.00000     0.78152    0.00164     0.78317
      H   14    0.22302      0.00000     0.77517    0.00181     0.77698
      C   15   -0.26003      1.99942     4.24392    0.01670     6.26003
      C   16   -0.26064      1.99942     4.24394    0.01729     6.26064
      C   17   -1.07130      1.99941     5.05363    0.01826     7.07130
      H   18    0.27243      0.00000     0.72513    0.00244     0.72757
      H   19    0.26911      0.00000     0.72864    0.00225     0.73089
      C   20   -0.06373      1.99910     4.04868    0.01595     6.06373
      C   21    0.25744      1.99861     3.72057    0.02337     5.74256
      C   22   -0.19472      1.99920     4.18069    0.01483     6.19472
      H   23    0.21993      0.00000     0.77891    0.00115     0.78007
      C   24   -0.18428      1.99920     4.17029    0.01479     6.18428
      H   25    0.21896      0.00000     0.77986    0.00119     0.78104
      C   26   -0.18789      1.99913     4.17467    0.01409     6.18789
      H   27    0.22180      0.00000     0.77649    0.00171     0.77820
      C   28   -0.60616      1.99935     4.59783    0.00898     6.60616
      H   29    0.22385      0.00000     0.77443    0.00171     0.77615
      H   30    0.20823      0.00000     0.78994    0.00183     0.79177
      H   31    0.20800      0.00000     0.79033    0.00167     0.79200
      C   32   -0.60642      1.99935     4.59821    0.00886     6.60642
      H   33    0.22298      0.00000     0.77532    0.00171     0.77702
      H   34    0.21339      0.00000     0.78496    0.00165     0.78661
      H   35    0.20579      0.00000     0.79252    0.00170     0.79421
      C   36   -0.24723      1.99906     4.23262    0.01555     6.24723
      H   37    0.22151      0.00000     0.77674    0.00174     0.77849
      C   38    0.25518      1.99862     3.72336    0.02284     5.74482
      C   39   -0.60154      1.99935     4.59402    0.00817     6.60154
      H   40    0.21066      0.00000     0.78769    0.00165     0.78934
      H   41    0.20580      0.00000     0.79276    0.00144     0.79420
      H   42    0.22288      0.00000     0.77537    0.00175     0.77712
      C   43   -0.17022      1.99915     4.15685    0.01423     6.17022
      H   44    0.21389      0.00000     0.78448    0.00162     0.78611
      C   45   -0.03262      1.99904     4.01708    0.01650     6.03262
      C   46   -0.18862      1.99913     4.17558    0.01391     6.18862
      H   47    0.22106      0.00000     0.77719    0.00175     0.77894
      C   48   -0.05893      1.99888     4.04059    0.01947     6.05893
      C   49   -0.18380      1.99920     4.16980    0.01480     6.18380
      H   50    0.21868      0.00000     0.78014    0.00118     0.78132
      C   51   -0.06444      1.99910     4.04938    0.01596     6.06444
      C   52   -0.17086      1.99914     4.15775    0.01397     6.17086
      H   53    0.21354      0.00000     0.78500    0.00146     0.78646
      C   54   -0.14638      1.99915     4.13299    0.01424     6.14638
      H   55    0.21823      0.00000     0.78022    0.00155     0.78177
      C   56   -0.24740      1.99906     4.23308    0.01526     6.24740
      H   57    0.22546      0.00000     0.77281    0.00174     0.77454
      C   58   -0.19458      1.99920     4.18058    0.01481     6.19458
      H   59    0.21990      0.00000     0.77892    0.00118     0.78010
      C   60   -0.14926      1.99914     4.13636    0.01376     6.14926
      H   61    0.21758      0.00000     0.78102    0.00140     0.78242
      C   62   -0.60365      1.99935     4.59601    0.00828     6.60365
      H   63    0.22363      0.00000     0.77461    0.00176     0.77637
      H   64    0.20692      0.00000     0.79155    0.00153     0.79308
      H   65    0.20990      0.00000     0.78841    0.00169     0.79010
     Rh   66   -0.43916     35.98475     9.42577    0.02864    45.43916
      C   67   -0.15838      1.99908     4.13929    0.02001     6.15838
      C   68   -0.16826      1.99909     4.14846    0.02071     6.16826
      C   69   -0.18422      1.99907     4.16547    0.01967     6.18422
      C   70   -0.15274      1.99908     4.13388    0.01978     6.15274
      C   71   -0.42879      1.99936     4.41735    0.01208     6.42879
      H   72    0.22241      0.00000     0.77533    0.00226     0.77759
      H   73    0.22532      0.00000     0.77250    0.00219     0.77468
      C   74   -0.42188      1.99935     4.40967    0.01286     6.42188
      C   75   -0.42195      1.99936     4.41082    0.01176     6.42195
      H   76    0.23375      0.00000     0.76386    0.00239     0.76625
      C   77   -0.41826      1.99935     4.40631    0.01261     6.41826
      H   78    0.23907      0.00000     0.75886    0.00208     0.76093
      H   79    0.23064      0.00000     0.76789    0.00148     0.76936
      H   80    0.21728      0.00000     0.78074    0.00198     0.78272
      H   81    0.23725      0.00000     0.76089    0.00186     0.76275
      H   82    0.21789      0.00000     0.78055    0.00156     0.78211
      H   83    0.21536      0.00000     0.78264    0.00199     0.78464
      H   84    0.22951      0.00000     0.76901    0.00148     0.77049
      H   85    0.21928      0.00000     0.77911    0.00161     0.78072
      H   86    0.23610      0.00000     0.76202    0.00188     0.76390
 =======================================================================
   * Total *    1.00000    133.94602   221.22983    0.82415   356.00000

 Normal termination of Gaussian 16 at Tue Jan 21 19:12:22 2025.
