 Gaussian 16, Revision B.01,
 Gaussian 16:  ES64L-G16RevB.01 20-Dec-2017

 ------------------------------------------
 # nmr=giao b3lyp/genecp pop=nbo scfcyc=200
 ------------------------------------------

 ---------
 MB-14_SPE
 ---------
 Symbolic Z-matrix:
 Charge =  1 Multiplicity = 1

                         Standard orientation:
 ---------------------------------------------------------------------
 Center     Atomic      Atomic             Coordinates (Angstroms)
 Number     Number       Type             X           Y           Z
 ---------------------------------------------------------------------
      1         15           0       -1.317809   -0.989590   -0.283831
      2         15           0        1.368231   -0.952809   -0.239161
      3          8           0       -1.893749   -2.012340    0.856609
      4          8           0       -2.503439   -0.807780   -1.383351
      5          8           0        1.920261   -1.945078    0.937999
      6          8           0        2.591481   -0.756738   -1.294651
      7          6           0        0.052051   -2.043999   -0.973691
      8          6           0       -2.766239   -1.542331    1.923889
      9          6           0       -3.065558   -2.710951    2.834449
     10          6           0       -3.202349   -1.937091   -1.995531
     11          6           0       -4.274919   -1.387941   -2.906981
     12          6           0        2.732481   -1.433408    2.034489
     13          6           0        3.002642   -2.572818    2.989809
     14          6           0        3.337171   -1.877338   -1.866551
     15          6           0        4.430181   -1.315237   -2.745221
     16          1           0        0.070071   -1.964269   -2.062471
     17          1           0        0.059632   -3.085729   -0.654241
     18          1           0       -3.682469   -1.140761    1.483469
     19          1           0       -2.256239   -0.739960    2.463039
     20          1           0       -3.718568   -2.384431    3.646219
     21          1           0       -2.148688   -3.109980    3.269019
     22          1           0       -3.569868   -3.510371    2.290859
     23          1           0       -3.624608   -2.558021   -1.204151
     24          1           0       -2.475078   -2.533450   -2.552561
     25          1           0       -4.808749   -2.214862   -3.379551
     26          1           0       -4.996019   -0.792322   -2.346381
     27          1           0       -3.842249   -0.766651   -3.691621
     28          1           0        2.185411   -0.624178    2.524759
     29          1           0        3.663231   -1.030037    1.627759
     30          1           0        3.611361   -2.215207    3.822639
     31          1           0        2.071292   -2.973468    3.390859
     32          1           0        3.543252   -3.379068    2.493209
     33          1           0        2.644092   -2.496508   -2.441931
     34          1           0        3.743562   -2.478747   -1.052131
     35          1           0        4.998861   -2.135657   -3.187471
     36          1           0        4.013201   -0.713257   -3.553081
     37          1           0        5.117161   -0.697127   -2.166421
     38         45           0       -0.007700    0.855191    0.174059
     39          6           0       -1.488471    2.523350   -0.424241
     40          6           0       -1.540801    2.358610    0.940149
     41          6           0        1.392399    2.566681    0.828989
     42          6           0        1.455339    2.446791   -0.540491
     43          6           0       -0.749501    3.628720   -1.153961
     44          1           0       -2.213711    1.973910   -1.014001
     45          1           0       -2.334150    1.727290    1.328499
     46          6           0       -0.818411    3.170400    1.986209
     47          6           0        0.608039    3.615451    1.594119
     48          1           0        2.150679    2.040332    1.399779
     49          6           0        0.694639    3.259771   -1.557611
     50          1           0        2.272069    1.864162   -0.952931
     51          1           0       -1.306182    3.870550   -2.060631
     52          1           0       -0.755932    4.533350   -0.546881
     53          1           0       -1.419442    4.049690    2.248849
     54          1           0       -0.766331    2.567780    2.895949
     55          1           0        0.572838    4.539181    1.017679
     56          1           0        1.153998    3.854141    2.508149
     57          1           0        0.671329    2.686171   -2.486191
     58          1           0        1.257828    4.173421   -1.785631
 ---------------------------------------------------------------------

 SCF Done:  E(RB3LYP) =  -1762.78686633     A.U. after   16 cycles

      1  P    Isotropic =   178.7446   Anisotropy =   159.7957

      2  P    Isotropic =   177.2811   Anisotropy =   160.1732

      3  O    Isotropic =   183.4544   Anisotropy =   102.0664

      4  O    Isotropic =   198.5802   Anisotropy =    77.6034

      5  O    Isotropic =   184.4665   Anisotropy =   100.7274

      6  O    Isotropic =   198.6329   Anisotropy =    75.0571

      7  C    Isotropic =   113.6740   Anisotropy =    48.1390

      8  C    Isotropic =   114.4258   Anisotropy =    75.4696

      9  C    Isotropic =   167.3940   Anisotropy =    27.8881

     10  C    Isotropic =   117.2448   Anisotropy =    76.2015

     11  C    Isotropic =   167.8953   Anisotropy =    27.3176

     12  C    Isotropic =   114.3544   Anisotropy =    75.9293

     13  C    Isotropic =   167.4162   Anisotropy =    27.8927

     14  C    Isotropic =   117.1859   Anisotropy =    76.2234

     15  C    Isotropic =   167.9179   Anisotropy =    27.2627

     16  H    Isotropic =    27.9886   Anisotropy =     4.2657

     17  H    Isotropic =    28.3581   Anisotropy =     8.1958

     18  H    Isotropic =    28.0073   Anisotropy =     6.3180

     19  H    Isotropic =    27.9265   Anisotropy =     5.1003

     20  H    Isotropic =    30.5905   Anisotropy =    10.7929

     21  H    Isotropic =    30.3355   Anisotropy =     7.2716

     22  H    Isotropic =    30.3423   Anisotropy =     8.7042

     23  H    Isotropic =    27.8659   Anisotropy =     7.2714

     24  H    Isotropic =    28.2295   Anisotropy =     6.8657

     25  H    Isotropic =    30.5980   Anisotropy =    11.4084

     26  H    Isotropic =    30.4536   Anisotropy =     7.4687

     27  H    Isotropic =    30.3983   Anisotropy =     7.4830

     28  H    Isotropic =    27.9949   Anisotropy =     5.3069

     29  H    Isotropic =    28.0574   Anisotropy =     6.4196

     30  H    Isotropic =    30.6101   Anisotropy =    10.8118

     31  H    Isotropic =    30.3524   Anisotropy =     7.2546

     32  H    Isotropic =    30.3446   Anisotropy =     8.7327

     33  H    Isotropic =    28.2117   Anisotropy =     6.8280

     34  H    Isotropic =    27.8434   Anisotropy =     7.2746

     35  H    Isotropic =    30.5744   Anisotropy =    11.3855

     36  H    Isotropic =    30.3616   Anisotropy =     7.4735

     37  H    Isotropic =    30.4180   Anisotropy =     7.5016

     38  Rh   Isotropic =  -297.2549   Anisotropy =   346.5579

     39  C    Isotropic =    67.2710   Anisotropy =   140.7364

     40  C    Isotropic =    75.9056   Anisotropy =   118.2624

     41  C    Isotropic =    77.0927   Anisotropy =   123.8852

     42  C    Isotropic =    67.0871   Anisotropy =   133.7332

     43  C    Isotropic =   153.5832   Anisotropy =    25.2161

     44  H    Isotropic =    26.2408   Anisotropy =     6.2968

     45  H    Isotropic =    26.3263   Anisotropy =     4.7211

     46  C    Isotropic =   148.6025   Anisotropy =    30.0452

     47  C    Isotropic =   154.4156   Anisotropy =    23.8248

     48  H    Isotropic =    27.0176   Anisotropy =     6.9867

     49  C    Isotropic =   147.5060   Anisotropy =    29.7057

     50  H    Isotropic =    25.6579   Anisotropy =     3.9470

     51  H    Isotropic =    29.8178   Anisotropy =    11.0761

     52  H    Isotropic =    29.6962   Anisotropy =     8.5621

     53  H    Isotropic =    29.0795   Anisotropy =    11.9797

     54  H    Isotropic =    29.3073   Anisotropy =     8.1467

     55  H    Isotropic =    29.7436   Anisotropy =     8.7217

     56  H    Isotropic =    29.9184   Anisotropy =    11.4668

     57  H    Isotropic =    29.0969   Anisotropy =     7.3276

     58  H    Isotropic =    29.1276   Anisotropy =    11.9177

 The electronic state is 1-A.
 Alpha  occ. eigenvalues --  -77.30801 -77.30777 -19.26906 -19.26861 -19.26691
 Alpha  occ. eigenvalues --  -19.26658 -10.33953 -10.33918 -10.33905 -10.33873
 Alpha  occ. eigenvalues --  -10.30793 -10.30445 -10.30432 -10.30304 -10.30077
 Alpha  occ. eigenvalues --  -10.28710 -10.28563 -10.28414 -10.28372 -10.26332
 Alpha  occ. eigenvalues --  -10.26304 -10.26304 -10.26290  -6.75906  -6.75879
 Alpha  occ. eigenvalues --   -4.92336  -4.92307  -4.92187  -4.92162  -4.91751
 Alpha  occ. eigenvalues --   -4.91725  -3.33552  -2.10624  -2.09726  -2.06893
 Alpha  occ. eigenvalues --   -1.17471  -1.17278  -1.13855  -1.13794  -0.95674
 Alpha  occ. eigenvalues --   -0.90497  -0.90357  -0.89153  -0.88047  -0.86662
 Alpha  occ. eigenvalues --   -0.86553  -0.85149  -0.81549  -0.79023  -0.75852
 Alpha  occ. eigenvalues --   -0.74613  -0.73545  -0.73357  -0.71731  -0.69477
 Alpha  occ. eigenvalues --   -0.68987  -0.66963  -0.63822  -0.63601  -0.63009
 Alpha  occ. eigenvalues --   -0.62339  -0.61076  -0.60082  -0.58933  -0.58748
 Alpha  occ. eigenvalues --   -0.58271  -0.58053  -0.57298  -0.55796  -0.55652
 Alpha  occ. eigenvalues --   -0.54769  -0.54745  -0.53720  -0.53606  -0.53526
 Alpha  occ. eigenvalues --   -0.53123  -0.52646  -0.49689  -0.49508  -0.49422
 Alpha  occ. eigenvalues --   -0.49087  -0.49017  -0.48827  -0.48503  -0.48319
 Alpha  occ. eigenvalues --   -0.48054  -0.47719  -0.47161  -0.47087  -0.46687
 Alpha  occ. eigenvalues --   -0.46326  -0.46173  -0.45397  -0.44347  -0.44115
 Alpha  occ. eigenvalues --   -0.43101  -0.42548  -0.42315  -0.41885  -0.41646
 Alpha  occ. eigenvalues --   -0.41403  -0.38616  -0.38192  -0.37418  -0.36381
 Alpha  occ. eigenvalues --   -0.35418  -0.32620
 Alpha virt. eigenvalues --   -0.18032  -0.15581  -0.10821  -0.09894  -0.08507
 Alpha virt. eigenvalues --   -0.08037  -0.07958  -0.07573  -0.06607  -0.05596
 Alpha virt. eigenvalues --   -0.05345  -0.05031  -0.04680  -0.04516  -0.04000

 Mulliken charges:
               1
     1  P    0.658191
     2  P    0.660639
     3  O   -0.328709
     4  O   -0.339796
     5  O   -0.327549
     6  O   -0.345695
     7  C   -0.574314
     8  C   -0.085559
     9  C   -0.337780
    10  C   -0.075333
    11  C   -0.320232
    12  C   -0.081715
    13  C   -0.336683
    14  C   -0.074015
    15  C   -0.321541
    16  H    0.217974
    17  H    0.220105
    18  H    0.139634
    19  H    0.125464
    20  H    0.136263
    21  H    0.133877
    22  H    0.135906
    23  H    0.144022
    24  H    0.123818
    25  H    0.138617
    26  H    0.132282
    27  H    0.131951
    28  H    0.125005
    29  H    0.139281
    30  H    0.136166
    31  H    0.133354
    32  H    0.135989
    33  H    0.124363
    34  H    0.144423
    35  H    0.139236
    36  H    0.131781
    37  H    0.132658
    38  Rh  -0.616576
    39  C   -0.016528
    40  C   -0.097564
    41  C   -0.014382
    42  C   -0.113527
    43  C   -0.350526
    44  H    0.205837
    45  H    0.181580
    46  C   -0.221006
    47  C   -0.340415
    48  H    0.174088
    49  C   -0.219189
    50  H    0.217949
    51  H    0.174729
    52  H    0.167936
    53  H    0.179478
    54  H    0.135119
    55  H    0.168706
    56  H    0.174880
    57  H    0.140347
    58  H    0.176984
 Sum of Mulliken charges =   1.00000

 Dipole moment (field-independent basis, Debye):
    X=              0.0024    Y=             -0.5395    Z=             -0.0519  Tot=              0.5420
 Quadrupole moment (field-independent basis, Debye-Ang):
   XX=           -132.9516   YY=           -141.4990   ZZ=           -146.5747
   XY=             -0.1251   XZ=             -0.0478   YZ=              6.0938

 Summary of Natural Population Analysis:

                                       Natural Population
                Natural  -----------------------------------------------
    Atom  No    Charge         Core      Valence    Rydberg      Total
 -----------------------------------------------------------------------
      P    1    1.72593      9.99590     3.18721    0.09096    13.27407
      P    2    1.72764      9.99587     3.18561    0.09089    13.27236
      O    3   -0.77301      1.99981     6.75828    0.01491     8.77301
      O    4   -0.77526      1.99981     6.76194    0.01350     8.77526
      O    5   -0.77296      1.99981     6.75817    0.01497     8.77296
      O    6   -0.77705      1.99981     6.76399    0.01324     8.77705
      C    7   -1.08711      1.99945     5.07196    0.01571     7.08711
      C    8   -0.06641      1.99930     4.05131    0.01581     6.06641
      C    9   -0.60814      1.99946     4.60091    0.00777     6.60814
      C   10   -0.06682      1.99930     4.05253    0.01500     6.06682
      C   11   -0.60887      1.99946     4.60167    0.00774     6.60887
      C   12   -0.06644      1.99929     4.05120    0.01594     6.06644
      C   13   -0.60831      1.99946     4.60112    0.00773     6.60831
      C   14   -0.06664      1.99930     4.05234    0.01500     6.06664
      C   15   -0.60903      1.99946     4.60183    0.00774     6.60903
      H   16    0.26522      0.00000     0.73320    0.00158     0.73478
      H   17    0.28122      0.00000     0.71679    0.00199     0.71878
      H   18    0.17699      0.00000     0.82105    0.00196     0.82301
      H   19    0.17830      0.00000     0.81966    0.00203     0.82170
      H   20    0.22308      0.00000     0.77588    0.00104     0.77692
      H   21    0.21595      0.00000     0.78276    0.00129     0.78405
      H   22    0.21703      0.00000     0.78173    0.00124     0.78297
      H   23    0.18239      0.00000     0.81514    0.00247     0.81761
      H   24    0.17211      0.00000     0.82550    0.00239     0.82789
      H   25    0.22544      0.00000     0.77358    0.00098     0.77456
      H   26    0.21566      0.00000     0.78311    0.00123     0.78434
      H   27    0.21548      0.00000     0.78331    0.00122     0.78452
      H   28    0.17948      0.00000     0.81846    0.00206     0.82052
      H   29    0.17728      0.00000     0.82079    0.00193     0.82272
      H   30    0.22315      0.00000     0.77582    0.00104     0.77685
      H   31    0.21564      0.00000     0.78307    0.00129     0.78436
      H   32    0.21716      0.00000     0.78160    0.00124     0.78284
      H   33    0.17227      0.00000     0.82535    0.00238     0.82773
      H   34    0.18267      0.00000     0.81489    0.00245     0.81733
      H   35    0.22566      0.00000     0.77336    0.00098     0.77434
      H   36    0.21539      0.00000     0.78339    0.00122     0.78461
      H   37    0.21577      0.00000     0.78300    0.00123     0.78423
     Rh   38   -0.58173     35.98447     9.57153    0.02572    45.58173
      C   39   -0.14204      1.99906     4.12253    0.02045     6.14204
      C   40   -0.17018      1.99906     4.14980    0.02132     6.17018
      C   41   -0.18379      1.99906     4.16408    0.02065     6.18379
      C   42   -0.13546      1.99906     4.11516    0.02124     6.13546
      C   43   -0.42668      1.99936     4.41531    0.01200     6.42668
      H   44    0.24145      0.00000     0.75695    0.00160     0.75855
      H   45    0.22711      0.00000     0.77071    0.00218     0.77289
      C   46   -0.42475      1.99936     4.41286    0.01253     6.42475
      C   47   -0.42314      1.99936     4.41189    0.01189     6.42314
      H   48    0.23010      0.00000     0.76826    0.00164     0.76990
      C   49   -0.42597      1.99935     4.41409    0.01252     6.42597
      H   50    0.24387      0.00000     0.75444    0.00169     0.75613
      H   51    0.23292      0.00000     0.76569    0.00139     0.76708
      H   52    0.21303      0.00000     0.78495    0.00202     0.78697
      H   53    0.23852      0.00000     0.75972    0.00175     0.76148
      H   54    0.21904      0.00000     0.77941    0.00155     0.78096
      H   55    0.21339      0.00000     0.78459    0.00202     0.78661
      H   56    0.23166      0.00000     0.76692    0.00141     0.76834
      H   57    0.22366      0.00000     0.77479    0.00154     0.77634
      H   58    0.23815      0.00000     0.76006    0.00178     0.76185
 =======================================================================
   * Total *    1.00000     97.96367   143.47529    0.56104   242.00000

 Normal termination of Gaussian 16 at Tue Jan 21 10:11:46 2025.
