 Gaussian 16, Revision B.01,
 Gaussian 16:  ES64L-G16RevB.01 20-Dec-2017

 ------------------------------------------
 # nmr=giao b3lyp/genecp pop=nbo scfcyc=200
 ------------------------------------------

 ----------
 MB-114_SPE
 ----------
 Symbolic Z-matrix:
 Charge =  1 Multiplicity = 1

                         Standard orientation:
 ---------------------------------------------------------------------
 Center     Atomic      Atomic             Coordinates (Angstroms)
 Number     Number       Type             X           Y           Z
 ---------------------------------------------------------------------
      1         15           0       -1.451821    0.055630   -0.499640
      2         15           0        1.452249   -0.054380   -0.499700
      3          6           0        0.000219    0.002040   -1.711260
      4          1           0       -0.046231    0.878850   -2.343260
      5          1           0        0.046789   -0.873630   -2.344840
      6          6           0       -2.367560    1.543441   -1.201190
      7          6           0       -2.388260    2.787751   -0.536090
      8          6           0       -3.068210    3.859891   -1.122730
      9          1           0       -3.079820    4.812841   -0.607020
     10          6           0       -3.712260    3.729171   -2.338460
     11          1           0       -4.235630    4.570651   -2.774950
     12          6           0       -3.662770    2.514541   -3.004340
     13          1           0       -4.145810    2.411581   -3.968400
     14          6           0       -2.996090    1.413311   -2.467520
     15          6           0       -3.009621    0.149341   -3.296010
     16          1           0       -2.038171   -0.341420   -3.340380
     17          1           0       -3.722441   -0.580339   -2.909530
     18          1           0       -3.299741    0.384021   -4.319520
     19          6           0       -2.671851   -1.372479   -0.594710
     20          6           0       -2.383371   -2.644099   -1.145340
     21          6           0       -3.356911   -3.643459   -1.086770
     22          1           0       -3.130671   -4.611579   -1.516570
     23          6           0       -4.590681   -3.429379   -0.497220
     24          1           0       -5.328551   -4.221019   -0.465240
     25          6           0       -4.860481   -2.194449    0.063130
     26          1           0       -5.815731   -2.017299    0.542420
     27          6           0       -3.924151   -1.158819    0.035300
     28          6           0       -4.357461    0.139951    0.675540
     29          1           0       -5.125791   -0.056129    1.423150
     30          1           0       -3.545271    0.664921    1.171890
     31          1           0       -4.778881    0.827771   -0.059980
     32          6           0        2.671590    1.374660   -0.590270
     33          6           0        2.383130    2.647620   -1.137790
     34          6           0        3.356040    3.647340   -1.075230
     35          1           0        3.129760    4.616530   -1.502600
     36          6           0        4.589250    3.432300   -0.484860
     37          1           0        5.326620    4.224250   -0.449780
     38          6           0        4.859140    2.195870    0.072160
     39          1           0        5.813990    2.017830    0.551920
     40          6           0        3.923399    1.159850    0.040340
     41          6           0        4.356719   -0.140650    0.677050
     42          1           0        3.544359   -0.667240    1.171400
     43          1           0        4.778709   -0.826210   -0.060250
     44          1           0        5.124589    0.053420    1.425650
     45          6           0        2.368769   -1.539600   -1.205710
     46          6           0        2.389959   -2.785980   -0.544490
     47          6           0        3.070149   -3.856080   -1.134590
     48          1           0        3.082179   -4.810610   -0.621820
     49          6           0        3.713999   -3.721370   -2.349980
     50          1           0        4.237569   -4.561320   -2.789180
     51          6           0        3.664129   -2.504650   -3.012000
     52          1           0        4.147089   -2.398500   -3.975760
     53          6           0        2.997159   -1.405320   -2.471680
     54          6           0        3.010129   -0.138700   -3.296120
     55          1           0        2.038159    0.351120   -3.339740
     56          1           0        3.721809    0.590520   -2.906690
     57          1           0        3.301359   -0.369800   -4.320120
     58         45           0       -0.000201   -0.002150    1.442470
     59          6           0       -1.460251    0.516840    3.127220
     60          6           0       -1.413341   -0.852960    2.962730
     61          6           0        1.459019   -0.527640    3.126330
     62          6           0        1.412139    0.842720    2.967210
     63          6           0       -0.771761    1.311570    4.220910
     64          1           0       -2.266931    1.035780    2.630690
     65          1           0       -2.191161   -1.307640    2.358000
     66          6           0       -0.632211   -1.825860    3.810620
     67          6           0        0.769699   -1.326840    4.216220
     68          1           0        2.265939   -1.044610    2.628140
     69          6           0        0.630430    1.812240    3.818400
     70          1           0        2.190209    1.299740    2.364550
     71          1           0       -1.392550    2.175330    4.464730
     72          1           0       -0.718831    0.716810    5.132490
     73          1           0       -1.215211   -2.073680    4.706580
     74          1           0       -0.536481   -2.758370    3.251520
     75          1           0        0.716089   -0.735830    5.130200
     76          1           0        1.390289   -2.191600    4.456950
     77          1           0        0.535120    2.746990    3.263000
     78          1           0        1.212760    2.056440    4.715790
     79          6           0        1.731099   -3.077450    0.781690
     80          1           0        2.462979   -3.043010    1.593920
     81          1           0        0.931419   -2.378630    1.026550
     82          1           0        1.313509   -4.085260    0.776480
     83          6           0        1.093790    3.027540   -1.822700
     84          1           0        1.018290    2.588890   -2.821150
     85          1           0        0.209170    2.741660   -1.259750
     86          1           0        1.051510    4.107850   -1.954150
     87          6           0       -1.728800    3.074890    0.790750
     88          1           0       -2.460400    3.038511    1.603150
     89          1           0       -0.929480    2.374830    1.033280
     90          1           0       -1.310520    4.082420    0.788360
     91          6           0       -1.093321   -3.022850   -1.829550
     92          1           0       -1.016381   -2.581860   -2.826860
     93          1           0       -0.209321   -2.738630   -1.264790
     94          1           0       -1.051261   -4.102870   -1.963510
 ---------------------------------------------------------------------

 SCF Done:  E(RB3LYP) =  -2386.18031704     A.U. after   16 cycles

      1  P    Isotropic =   335.9569   Anisotropy =   157.9374

      2  P    Isotropic =   336.0328   Anisotropy =   158.0010

      3  C    Isotropic =   119.2773   Anisotropy =    62.3962

      4  H    Isotropic =    26.4407   Anisotropy =     4.1571

      5  H    Isotropic =    26.4381   Anisotropy =     4.1570

      6  C    Isotropic =    37.1024   Anisotropy =   148.9310

      7  C    Isotropic =    36.0904   Anisotropy =   196.4581

      8  C    Isotropic =    49.0103   Anisotropy =   163.3910

      9  H    Isotropic =    24.3901   Anisotropy =     8.3274

     10  C    Isotropic =    46.9302   Anisotropy =   189.0991

     11  H    Isotropic =    24.3013   Anisotropy =     3.1865

     12  C    Isotropic =    47.2955   Anisotropy =   155.8801

     13  H    Isotropic =    24.6381   Anisotropy =     7.7189

     14  C    Isotropic =    34.6157   Anisotropy =   191.9471

     15  C    Isotropic =   160.1436   Anisotropy =    28.8235

     16  H    Isotropic =    30.2582   Anisotropy =     6.6322

     17  H    Isotropic =    30.3581   Anisotropy =     7.8868

     18  H    Isotropic =    29.9294   Anisotropy =    10.8770

     19  C    Isotropic =    45.5628   Anisotropy =   137.4441

     20  C    Isotropic =    36.7114   Anisotropy =   189.1255

     21  C    Isotropic =    47.2240   Anisotropy =   152.3408

     22  H    Isotropic =    24.6372   Anisotropy =     8.0420

     23  C    Isotropic =    47.6461   Anisotropy =   187.7588

     24  H    Isotropic =    24.3938   Anisotropy =     3.1559

     25  C    Isotropic =    46.9417   Anisotropy =   159.1243

     26  H    Isotropic =    24.6835   Anisotropy =     8.0484

     27  C    Isotropic =    36.2615   Anisotropy =   196.8547

     28  C    Isotropic =   158.9160   Anisotropy =    22.3563

     29  H    Isotropic =    29.9668   Anisotropy =     9.8834

     30  H    Isotropic =    30.6732   Anisotropy =     6.9468

     31  H    Isotropic =    30.6606   Anisotropy =     6.0025

     32  C    Isotropic =    45.5647   Anisotropy =   137.4744

     33  C    Isotropic =    36.7212   Anisotropy =   189.1202

     34  C    Isotropic =    47.2277   Anisotropy =   152.3191

     35  H    Isotropic =    24.6376   Anisotropy =     8.0396

     36  C    Isotropic =    47.6484   Anisotropy =   187.7534

     37  H    Isotropic =    24.3938   Anisotropy =     3.1547

     38  C    Isotropic =    46.9444   Anisotropy =   159.1078

     39  H    Isotropic =    24.6835   Anisotropy =     8.0468

     40  C    Isotropic =    36.2757   Anisotropy =   196.8526

     41  C    Isotropic =   158.9192   Anisotropy =    22.3573

     42  H    Isotropic =    30.6712   Anisotropy =     6.9492

     43  H    Isotropic =    30.6588   Anisotropy =     6.0022

     44  H    Isotropic =    29.9663   Anisotropy =     9.8821

     45  C    Isotropic =    37.1011   Anisotropy =   148.9725

     46  C    Isotropic =    36.0909   Anisotropy =   196.4354

     47  C    Isotropic =    49.0054   Anisotropy =   163.3791

     48  H    Isotropic =    24.3902   Anisotropy =     8.3273

     49  C    Isotropic =    46.9286   Anisotropy =   189.0856

     50  H    Isotropic =    24.3018   Anisotropy =     3.1867

     51  C    Isotropic =    47.2952   Anisotropy =   155.8569

     52  H    Isotropic =    24.6386   Anisotropy =     7.7188

     53  C    Isotropic =    34.6120   Anisotropy =   191.9356

     54  C    Isotropic =   160.1535   Anisotropy =    28.8266

     55  H    Isotropic =    30.2559   Anisotropy =     6.6321

     56  H    Isotropic =    30.3559   Anisotropy =     7.9020

     57  H    Isotropic =    29.9307   Anisotropy =    10.8777

     58  Rh   Isotropic =  -417.7257   Anisotropy =   429.8579

     59  C    Isotropic =    81.1383   Anisotropy =   116.8805

     60  C    Isotropic =    73.7066   Anisotropy =   121.5008

     61  C    Isotropic =    81.0717   Anisotropy =   116.9734

     62  C    Isotropic =    73.6913   Anisotropy =   121.5283

     63  C    Isotropic =   154.4570   Anisotropy =    24.0520

     64  H    Isotropic =    27.0237   Anisotropy =     4.0424

     65  H    Isotropic =    26.9608   Anisotropy =     4.9862

     66  C    Isotropic =   147.2596   Anisotropy =    27.9163

     67  C    Isotropic =   154.4616   Anisotropy =    24.0508

     68  H    Isotropic =    27.0190   Anisotropy =     4.0378

     69  C    Isotropic =   147.2664   Anisotropy =    27.8981

     70  H    Isotropic =    26.9586   Anisotropy =     4.9776

     71  H    Isotropic =    29.8690   Anisotropy =    10.7157

     72  H    Isotropic =    29.8495   Anisotropy =     9.7694

     73  H    Isotropic =    29.3713   Anisotropy =    12.4178

     74  H    Isotropic =    29.1498   Anisotropy =     5.7260

     75  H    Isotropic =    29.8485   Anisotropy =     9.7707

     76  H    Isotropic =    29.8691   Anisotropy =    10.7145

     77  H    Isotropic =    29.1510   Anisotropy =     5.7276

     78  H    Isotropic =    29.3716   Anisotropy =    12.4193

     79  C    Isotropic =   156.7074   Anisotropy =    31.6536

     80  H    Isotropic =    28.8890   Anisotropy =     5.5069

     81  H    Isotropic =    25.8847   Anisotropy =    12.6099

     82  H    Isotropic =    28.9693   Anisotropy =     7.0759

     83  C    Isotropic =   157.7330   Anisotropy =    25.3420

     84  H    Isotropic =    29.6134   Anisotropy =     3.3579

     85  H    Isotropic =    29.3473   Anisotropy =    13.1053

     86  H    Isotropic =    29.7462   Anisotropy =     8.1750

     87  C    Isotropic =   156.6978   Anisotropy =    31.6731

     88  H    Isotropic =    28.8885   Anisotropy =     5.5060

     89  H    Isotropic =    25.8831   Anisotropy =    12.6077

     90  H    Isotropic =    28.9694   Anisotropy =     7.0736

     91  C    Isotropic =   157.7202   Anisotropy =    25.3287

     92  H    Isotropic =    29.6119   Anisotropy =     3.3584

     93  H    Isotropic =    29.3447   Anisotropy =    13.0900

     94  H    Isotropic =    29.7438   Anisotropy =     8.1757

 The electronic state is 1-A.
 Alpha  occ. eigenvalues --  -77.23784 -77.23783 -10.29886 -10.29513 -10.29513
 Alpha  occ. eigenvalues --  -10.29301 -10.29301 -10.29021 -10.29020 -10.28843
 Alpha  occ. eigenvalues --  -10.28843 -10.28794 -10.28793 -10.28760 -10.28758
 Alpha  occ. eigenvalues --  -10.28756 -10.28754 -10.28594 -10.28592 -10.27347
 Alpha  occ. eigenvalues --  -10.27347 -10.27193 -10.27192 -10.26714 -10.26713
 Alpha  occ. eigenvalues --  -10.26497 -10.26496 -10.26335 -10.26334 -10.26312
 Alpha  occ. eigenvalues --  -10.26311 -10.26264 -10.26262 -10.26247 -10.26246
 Alpha  occ. eigenvalues --  -10.26234 -10.26232 -10.26169 -10.26169 -10.26050
 Alpha  occ. eigenvalues --  -10.26050 -10.25881 -10.25880  -6.69620  -6.69618
 Alpha  occ. eigenvalues --   -4.85918  -4.85917  -4.85843  -4.85841  -4.85528
 Alpha  occ. eigenvalues --   -4.85527  -3.31544  -2.08363  -2.07755  -2.05054
 Alpha  occ. eigenvalues --   -0.96713  -0.96532  -0.95943  -0.95902  -0.94407
 Alpha  occ. eigenvalues --   -0.89077  -0.89027  -0.88519  -0.88465  -0.88389
 Alpha  occ. eigenvalues --   -0.88325  -0.87928  -0.86972  -0.85458  -0.85360
 Alpha  occ. eigenvalues --   -0.84184  -0.80593  -0.80267  -0.79959  -0.79670
 Alpha  occ. eigenvalues --   -0.79559  -0.77755  -0.77569  -0.77416  -0.77341
 Alpha  occ. eigenvalues --   -0.77289  -0.74283  -0.71817  -0.70475  -0.69180
 Alpha  occ. eigenvalues --   -0.68889  -0.67474  -0.67442  -0.67304  -0.67293
 Alpha  occ. eigenvalues --   -0.65924  -0.65888  -0.65558  -0.62576  -0.60071
 Alpha  occ. eigenvalues --   -0.59801  -0.59591  -0.59068  -0.58385  -0.58215
 Alpha  occ. eigenvalues --   -0.57526  -0.57442  -0.57365  -0.56884  -0.56249
 Alpha  occ. eigenvalues --   -0.56033  -0.54389  -0.53676  -0.53642  -0.53387
 Alpha  occ. eigenvalues --   -0.53315  -0.53156  -0.52655  -0.52581  -0.52519
 Alpha  occ. eigenvalues --   -0.52458  -0.52240  -0.51812  -0.51513  -0.51135
 Alpha  occ. eigenvalues --   -0.50831  -0.50683  -0.50510  -0.50211  -0.50036
 Alpha  occ. eigenvalues --   -0.50018  -0.49874  -0.49866  -0.49647  -0.49450
 Alpha  occ. eigenvalues --   -0.48943  -0.48721  -0.48018  -0.47715  -0.47344
 Alpha  occ. eigenvalues --   -0.47091  -0.47081  -0.46753  -0.46716  -0.46302
 Alpha  occ. eigenvalues --   -0.45996  -0.45480  -0.45049  -0.44794  -0.44606
 Alpha  occ. eigenvalues --   -0.44340  -0.44274  -0.44096  -0.44004  -0.43796
 Alpha  occ. eigenvalues --   -0.43224  -0.42740  -0.42715  -0.42500  -0.41914
 Alpha  occ. eigenvalues --   -0.41447  -0.40887  -0.37699  -0.37041  -0.35726
 Alpha  occ. eigenvalues --   -0.35093  -0.35042  -0.34632  -0.34441  -0.34022
 Alpha  occ. eigenvalues --   -0.33960  -0.33789  -0.33682  -0.33360  -0.33164
 Alpha  occ. eigenvalues --   -0.30405
 Alpha virt. eigenvalues --   -0.16434  -0.15037  -0.12898  -0.12198  -0.12044
 Alpha virt. eigenvalues --   -0.11324  -0.10801  -0.10521  -0.10355  -0.09841
 Alpha virt. eigenvalues --   -0.09096  -0.07626  -0.07359  -0.06943  -0.06096

 Mulliken charges:
               1
     1  P    0.232402
     2  P    0.232316
     3  C   -0.645782
     4  H    0.276451
     5  H    0.276466
     6  C   -0.255684
     7  C    0.230155
     8  C   -0.145103
     9  H    0.114628
    10  C   -0.045505
    11  H    0.130648
    12  C   -0.121449
    13  H    0.115488
    14  C    0.104908
    15  C   -0.456729
    16  H    0.139865
    17  H    0.179073
    18  H    0.151421
    19  C   -0.076989
    20  C    0.162356
    21  C   -0.131478
    22  H    0.113027
    23  C   -0.053782
    24  H    0.128596
    25  C   -0.131253
    26  H    0.116273
    27  C    0.081150
    28  C   -0.400287
    29  H    0.153051
    30  H    0.081404
    31  H    0.182759
    32  C   -0.076894
    33  C    0.162190
    34  C   -0.131374
    35  H    0.113005
    36  C   -0.053826
    37  H    0.128594
    38  C   -0.131221
    39  H    0.116251
    40  C    0.080948
    41  C   -0.400293
    42  H    0.081343
    43  H    0.182789
    44  H    0.153042
    45  C   -0.255758
    46  C    0.230291
    47  C   -0.145150
    48  H    0.114610
    49  C   -0.045451
    50  H    0.130648
    51  C   -0.121431
    52  H    0.115465
    53  C    0.105098
    54  C   -0.456949
    55  H    0.139859
    56  H    0.179139
    57  H    0.151400
    58  Rh  -0.628931
    59  C   -0.077274
    60  C   -0.059537
    61  C   -0.077478
    62  C   -0.059298
    63  C   -0.353059
    64  H    0.211304
    65  H    0.217337
    66  C   -0.251529
    67  C   -0.353004
    68  H    0.211318
    69  C   -0.251433
    70  H    0.217221
    71  H    0.166275
    72  H    0.170730
    73  H    0.172262
    74  H    0.144046
    75  H    0.170737
    76  H    0.166274
    77  H    0.144057
    78  H    0.172256
    79  C   -0.562635
    80  H    0.170535
    81  H    0.221775
    82  H    0.159532
    83  C   -0.513025
    84  H    0.166834
    85  H    0.125284
    86  H    0.153190
    87  C   -0.562568
    88  H    0.170511
    89  H    0.221885
    90  H    0.159553
    91  C   -0.513191
    92  H    0.166835
    93  H    0.125292
    94  H    0.153198
 Sum of Mulliken charges =   1.00000

 Dipole moment (field-independent basis, Debye):
    X=             -0.0017    Y=             -0.0016    Z=              0.3684  Tot=              0.3684
 Quadrupole moment (field-independent basis, Debye-Ang):
   XX=           -240.5309   YY=           -246.2931   ZZ=           -250.8673
   XY=             -1.9585   XZ=              0.0037   YZ=              0.0037

 Summary of Natural Population Analysis:

                                       Natural Population
                Natural  -----------------------------------------------
    Atom  No    Charge         Core      Valence    Rydberg      Total
 -----------------------------------------------------------------------
      P    1    1.04120      9.99659     3.91247    0.04974    13.95880
      P    2    1.04086      9.99660     3.91281    0.04973    13.95914
      C    3   -0.98628      1.99936     4.97061    0.01632     6.98628
      H    4    0.27048      0.00000     0.72756    0.00196     0.72952
      H    5    0.27050      0.00000     0.72753    0.00196     0.72950
      C    6   -0.30758      1.99882     4.28514    0.02362     6.30758
      C    7   -0.01117      1.99904     3.99351    0.01862     6.01117
      C    8   -0.20431      1.99909     4.19061    0.01461     6.20431
      H    9    0.21485      0.00000     0.78374    0.00141     0.78515
      C   10   -0.16670      1.99917     4.15288    0.01464     6.16670
      H   11    0.22233      0.00000     0.77651    0.00116     0.77767
      C   12   -0.20254      1.99911     4.18876    0.01467     6.20254
      H   13    0.21624      0.00000     0.78225    0.00151     0.78376
      C   14   -0.00804      1.99904     3.99035    0.01865     6.00804
      C   15   -0.62014      1.99939     4.61220    0.00855     6.62014
      H   16    0.20187      0.00000     0.79525    0.00288     0.79813
      H   17    0.23206      0.00000     0.76578    0.00217     0.76794
      H   18    0.22507      0.00000     0.77355    0.00137     0.77493
      C   19   -0.30689      1.99881     4.28618    0.02190     6.30689
      C   20   -0.01173      1.99905     3.99580    0.01688     6.01173
      C   21   -0.19953      1.99911     4.18634    0.01408     6.19953
      H   22    0.21408      0.00000     0.78458    0.00135     0.78592
      C   23   -0.17247      1.99917     4.15861    0.01469     6.17247
      H   24    0.22227      0.00000     0.77653    0.00120     0.77773
      C   25   -0.20080      1.99910     4.18717    0.01453     6.20080
      H   26    0.21593      0.00000     0.78270    0.00137     0.78407
      C   27   -0.01126      1.99905     3.99492    0.01729     6.01126
      C   28   -0.61601      1.99939     4.60803    0.00859     6.61601
      H   29    0.22568      0.00000     0.77286    0.00146     0.77432
      H   30    0.20116      0.00000     0.79640    0.00244     0.79884
      H   31    0.23199      0.00000     0.76570    0.00231     0.76801
      C   32   -0.30684      1.99881     4.28614    0.02190     6.30684
      C   33   -0.01173      1.99905     3.99579    0.01688     6.01173
      C   34   -0.19954      1.99911     4.18634    0.01408     6.19954
      H   35    0.21407      0.00000     0.78458    0.00135     0.78593
      C   36   -0.17247      1.99917     4.15862    0.01469     6.17247
      H   37    0.22226      0.00000     0.77653    0.00120     0.77774
      C   38   -0.20080      1.99910     4.18717    0.01453     6.20080
      H   39    0.21593      0.00000     0.78270    0.00137     0.78407
      C   40   -0.01128      1.99905     3.99494    0.01729     6.01128
      C   41   -0.61601      1.99939     4.60804    0.00859     6.61601
      H   42    0.20115      0.00000     0.79641    0.00244     0.79885
      H   43    0.23199      0.00000     0.76570    0.00231     0.76801
      H   44    0.22568      0.00000     0.77286    0.00146     0.77432
      C   45   -0.30755      1.99882     4.28512    0.02362     6.30755
      C   46   -0.01116      1.99904     3.99350    0.01862     6.01116
      C   47   -0.20430      1.99909     4.19061    0.01461     6.20430
      H   48    0.21484      0.00000     0.78375    0.00141     0.78516
      C   49   -0.16670      1.99917     4.15289    0.01464     6.16670
      H   50    0.22233      0.00000     0.77651    0.00116     0.77767
      C   51   -0.20253      1.99911     4.18875    0.01467     6.20253
      H   52    0.21624      0.00000     0.78225    0.00151     0.78376
      C   53   -0.00804      1.99904     3.99035    0.01865     6.00804
      C   54   -0.62014      1.99939     4.61221    0.00855     6.62014
      H   55    0.20186      0.00000     0.79526    0.00288     0.79814
      H   56    0.23206      0.00000     0.76577    0.00217     0.76794
      H   57    0.22507      0.00000     0.77356    0.00137     0.77493
     Rh   58   -0.32471     35.98597     9.31256    0.02618    45.32471
      C   59   -0.18096      1.99906     4.16215    0.01975     6.18096
      C   60   -0.15688      1.99909     4.13807    0.01972     6.15688
      C   61   -0.18082      1.99906     4.16201    0.01975     6.18082
      C   62   -0.15698      1.99909     4.13817    0.01972     6.15698
      C   63   -0.42434      1.99935     4.41281    0.01218     6.42434
      H   64    0.21816      0.00000     0.77937    0.00248     0.78184
      H   65    0.23366      0.00000     0.76412    0.00222     0.76634
      C   66   -0.41590      1.99935     4.40394    0.01261     6.41590
      C   67   -0.42437      1.99935     4.41284    0.01218     6.42437
      H   68    0.21816      0.00000     0.77936    0.00248     0.78184
      C   69   -0.41590      1.99935     4.40394    0.01261     6.41590
      H   70    0.23366      0.00000     0.76411    0.00222     0.76634
      H   71    0.22689      0.00000     0.77157    0.00154     0.77311
      H   72    0.21642      0.00000     0.78162    0.00197     0.78358
      H   73    0.23356      0.00000     0.76457    0.00187     0.76644
      H   74    0.21725      0.00000     0.78107    0.00168     0.78275
      H   75    0.21643      0.00000     0.78161    0.00196     0.78357
      H   76    0.22690      0.00000     0.77157    0.00154     0.77310
      H   77    0.21726      0.00000     0.78107    0.00168     0.78274
      H   78    0.23356      0.00000     0.76457    0.00187     0.76644
      C   79   -0.61457      1.99938     4.60677    0.00841     6.61457
      H   80    0.21884      0.00000     0.77950    0.00166     0.78116
      H   81    0.22327      0.00000     0.77389    0.00284     0.77673
      H   82    0.22606      0.00000     0.77248    0.00146     0.77394
      C   83   -0.61297      1.99939     4.60535    0.00823     6.61297
      H   84    0.21169      0.00000     0.78646    0.00185     0.78831
      H   85    0.21308      0.00000     0.78485    0.00206     0.78692
      H   86    0.22626      0.00000     0.77218    0.00156     0.77374
      C   87   -0.61449      1.99938     4.60669    0.00842     6.61449
      H   88    0.21884      0.00000     0.77950    0.00166     0.78116
      H   89    0.22324      0.00000     0.77392    0.00284     0.77676
      H   90    0.22607      0.00000     0.77247    0.00146     0.77393
      C   91   -0.61295      1.99939     4.60534    0.00823     6.61295
      H   92    0.21169      0.00000     0.78646    0.00185     0.78831
      H   93    0.21307      0.00000     0.78486    0.00206     0.78693
      H   94    0.22628      0.00000     0.77216    0.00156     0.77372
 =======================================================================
   * Total *    1.00000    137.94441   231.21761    0.83798   370.00000

 Normal termination of Gaussian 16 at Wed Jan 22 00:19:15 2025.
