 Gaussian 16, Revision B.01,
 Gaussian 16:  ES64L-G16RevB.01 20-Dec-2017

 ------------------------------------------
 # nmr=giao b3lyp/genecp pop=nbo scfcyc=200
 ------------------------------------------

 -------------
 Ligand 38 SPE
 -------------
 Symbolic Z-matrix:
 Charge =  1 Multiplicity = 1

                         Standard orientation:
 ---------------------------------------------------------------------
 Center     Atomic      Atomic             Coordinates (Angstroms)
 Number     Number       Type             X           Y           Z
 ---------------------------------------------------------------------
      1         15           0       -1.348390   -0.118160   -0.016850
      2         15           0        1.342940   -0.118201    0.070470
      3          8           0       -2.296589    0.108890   -1.338550
      4          8           0       -2.306549    0.393410    1.229350
      5          8           0        2.325201    0.083179    1.371150
      6          8           0        2.269431    0.415939   -1.190060
      7          6           0       -3.095219    1.264930   -1.436060
      8          6           0       -2.744859    2.185300   -2.438250
      9          1           0       -1.910329    1.961380   -3.089690
     10          6           0       -3.479629    3.330850   -2.577280
     11          1           0       -3.232969    4.045370   -3.353120
     12          6           0       -4.553259    3.612070   -1.698410
     13          6           0       -5.272669    4.829730   -1.790400
     14          1           0       -5.005109    5.532330   -2.570710
     15          6           0       -6.275109    5.123930   -0.904160
     16          1           0       -6.814349    6.059590   -0.979560
     17          6           0       -6.594589    4.210190    0.121150
     18          1           0       -7.369929    4.457691    0.835350
     19          6           0       -5.930579    3.014090    0.227750
     20          1           0       -6.187269    2.332180    1.025400
     21          6           0       -4.903099    2.663530   -0.684740
     22          6           0       -4.180299    1.424800   -0.600130
     23          6           0       -4.549379    0.354910    0.369590
     24          6           0       -5.851830   -0.249660    0.392640
     25          6           0       -6.835179    0.015151   -0.594180
     26          1           0       -6.605799    0.695920   -1.401230
     27          6           0       -8.067220   -0.587069   -0.544850
     28          1           0       -8.798830   -0.374089   -1.314170
     29          6           0       -8.390630   -1.483669    0.494350
     30          1           0       -9.370580   -1.942769    0.524290
     31          6           0       -7.458330   -1.780229    1.453670
     32          1           0       -7.690320   -2.480619    2.247320
     33          6           0       -6.169380   -1.191830    1.422850
     34          6           0       -5.185830   -1.535260    2.382270
     35          1           0       -5.442840   -2.228540    3.174060
     36          6           0       -3.921700   -1.017370    2.303150
     37          1           0       -3.151380   -1.277980    3.017120
     38          6           0       -3.619420   -0.100750    1.281280
     39          6           0        3.131491    1.234009    1.468450
     40          6           0        2.811691    2.137069    2.496250
     41          1           0        1.993381    1.904659    3.165050
     42          6           0        3.555231    3.276669    2.637250
     43          1           0        3.332221    3.977679    3.432340
     44          6           0        4.607021    3.569549    1.736070
     45          6           0        5.334421    4.782149    1.831850
     46          1           0        5.090601    5.471199    2.631780
     47          6           0        6.314881    5.088538    0.925390
     48          1           0        6.860391    6.020278    1.004060
     49          6           0        6.603161    4.192748   -0.124710
     50          1           0        7.360831    4.450208   -0.854200
     51          6           0        5.930861    3.001718   -0.236130
     52          1           0        6.163401    2.333748   -1.052750
     53          6           0        4.925811    2.638599    0.696200
     54          6           0        4.195191    1.404709    0.607530
     55          6           0        4.533831    0.351629   -0.391300
     56          6           0        5.832440   -0.257692   -0.460190
     57          6           0        6.842860   -0.015482    0.504820
     58          1           0        6.638071    0.650858    1.330340
     59          6           0        8.070410   -0.621632    0.411370
     60          1           0        8.823170   -0.426142    1.164770
     61          6           0        8.362030   -1.499762   -0.652720
     62          1           0        9.338770   -1.962102   -0.717400
     63          6           0        7.403180   -1.774502   -1.592160
     64          1           0        7.610810   -2.460772   -2.404670
     65          6           0        6.118160   -1.181672   -1.515920
     66          6           0        5.107730   -1.503561   -2.454690
     67          1           0        5.340400   -2.183281   -3.265530
     68          6           0        3.848500   -0.982171   -2.332290
     69          1           0        3.057940   -1.227091   -3.029480
     70          6           0        3.577990   -0.083081   -1.286290
     71         45           0       -0.001480   -1.973181    0.019330
     72          6           0       -1.513330   -3.684720    0.476920
     73          6           0       -1.419270   -3.531920   -0.884290
     74          6           0        1.513380   -3.679051   -0.440450
     75          6           0        1.418910   -3.529191    0.921270
     76          1           0       -2.320450   -3.155260    0.971660
     77          6           0       -0.821880   -4.748410    1.307600
     78          1           0       -2.170410   -2.914600   -1.367190
     79          6           0       -0.550900   -4.318191   -1.833060
     80          6           0        0.825260   -4.743341   -1.273210
     81          1           0        2.319240   -3.146761   -0.934310
     82          1           0        2.168780   -2.911411    1.405510
     83          6           0        0.552940   -4.320181    1.868330
     84          1           0       -0.727060   -5.664150    0.725450
     85          1           0       -1.468490   -4.995040    2.151240
     86          1           0       -1.098700   -5.206770   -2.171030
     87          1           0       -0.401320   -3.707221   -2.725740
     88          1           0        1.472610   -4.986181   -2.117370
     89          1           0        0.733320   -5.660591   -0.692990
     90          1           0        1.103520   -5.207831    2.204290
     91          1           0        0.401470   -3.711671    2.762360
     92          6           0       -0.003359    1.161409    0.053830
     93          1           0       -0.047809    1.763399    0.962640
     94          1           0        0.038781    1.814309   -0.819030
 ---------------------------------------------------------------------

 SCF Done:  E(RB3LYP) =  -2984.98975353     A.U. after   19 cycles

      1  P    Isotropic =   139.1703   Anisotropy =   195.8831

      2  P    Isotropic =   138.9064   Anisotropy =   197.1301

      3  O    Isotropic =   152.3927   Anisotropy =    46.9927

      4  O    Isotropic =   141.2553   Anisotropy =    80.4916

      5  O    Isotropic =   152.1979   Anisotropy =    46.7061

      6  O    Isotropic =   140.8243   Anisotropy =    79.8456

      7  C    Isotropic =    29.1506   Anisotropy =   105.6040

      8  C    Isotropic =    61.6882   Anisotropy =   145.6208

      9  H    Isotropic =    24.3739   Anisotropy =     7.9598

     10  C    Isotropic =    46.8411   Anisotropy =   165.2383

     11  H    Isotropic =    23.7000   Anisotropy =     7.5497

     12  C    Isotropic =    45.2642   Anisotropy =   213.6022

     13  C    Isotropic =    50.1326   Anisotropy =   164.3162

     14  H    Isotropic =    23.7568   Anisotropy =     7.5186

     15  C    Isotropic =    51.2187   Anisotropy =   185.6412

     16  H    Isotropic =    24.0918   Anisotropy =     4.2617

     17  C    Isotropic =    50.3564   Anisotropy =   187.1903

     18  H    Isotropic =    24.3075   Anisotropy =     7.8951

     19  C    Isotropic =    51.5129   Anisotropy =   178.0492

     20  H    Isotropic =    24.5942   Anisotropy =    15.0232

     21  C    Isotropic =    45.0015   Anisotropy =   205.0154

     22  C    Isotropic =    53.8865   Anisotropy =   137.3464

     23  C    Isotropic =    52.0417   Anisotropy =   138.6991

     24  C    Isotropic =    44.1267   Anisotropy =   203.3260

     25  C    Isotropic =    51.4828   Anisotropy =   179.8176

     26  H    Isotropic =    24.5063   Anisotropy =    14.4999

     27  C    Isotropic =    50.3083   Anisotropy =   187.7879

     28  H    Isotropic =    24.2434   Anisotropy =     7.7277

     29  C    Isotropic =    51.5052   Anisotropy =   187.0704

     30  H    Isotropic =    24.0214   Anisotropy =     4.3557

     31  C    Isotropic =    50.5244   Anisotropy =   164.5216

     32  H    Isotropic =    23.6759   Anisotropy =     7.6257

     33  C    Isotropic =    45.7883   Anisotropy =   213.8563

     34  C    Isotropic =    47.2786   Anisotropy =   164.8347

     35  H    Isotropic =    23.6393   Anisotropy =     7.4939

     36  C    Isotropic =    61.6888   Anisotropy =   147.2335

     37  H    Isotropic =    24.2017   Anisotropy =     7.0704

     38  C    Isotropic =    29.0083   Anisotropy =   110.0021

     39  C    Isotropic =    29.0485   Anisotropy =   105.5604

     40  C    Isotropic =    61.7375   Anisotropy =   145.4469

     41  H    Isotropic =    24.3844   Anisotropy =     7.9854

     42  C    Isotropic =    46.8158   Anisotropy =   165.1792

     43  H    Isotropic =    23.6969   Anisotropy =     7.5113

     44  C    Isotropic =    45.3016   Anisotropy =   213.7709

     45  C    Isotropic =    50.1425   Anisotropy =   164.3548

     46  H    Isotropic =    23.7496   Anisotropy =     7.5044

     47  C    Isotropic =    51.2667   Anisotropy =   185.7912

     48  H    Isotropic =    24.0832   Anisotropy =     4.2588

     49  C    Isotropic =    50.3506   Anisotropy =   187.2102

     50  H    Isotropic =    24.2982   Anisotropy =     7.9151

     51  C    Isotropic =    51.5733   Anisotropy =   178.1686

     52  H    Isotropic =    24.5929   Anisotropy =    15.0454

     53  C    Isotropic =    44.9162   Anisotropy =   204.8659

     54  C    Isotropic =    53.7687   Anisotropy =   137.4652

     55  C    Isotropic =    51.9747   Anisotropy =   138.6131

     56  C    Isotropic =    44.1103   Anisotropy =   203.1192

     57  C    Isotropic =    51.6543   Anisotropy =   179.9721

     58  H    Isotropic =    24.4961   Anisotropy =    14.4810

     59  C    Isotropic =    50.3397   Anisotropy =   187.7499

     60  H    Isotropic =    24.2457   Anisotropy =     7.7015

     61  C    Isotropic =    51.5309   Anisotropy =   187.1314

     62  H    Isotropic =    24.0147   Anisotropy =     4.3602

     63  C    Isotropic =    50.4942   Anisotropy =   164.4900

     64  H    Isotropic =    23.6681   Anisotropy =     7.6521

     65  C    Isotropic =    45.8989   Anisotropy =   214.4764

     66  C    Isotropic =    47.1812   Anisotropy =   164.5799

     67  H    Isotropic =    23.6354   Anisotropy =     7.5115

     68  C    Isotropic =    61.6344   Anisotropy =   147.2988

     69  H    Isotropic =    24.1909   Anisotropy =     7.0553

     70  C    Isotropic =    28.9623   Anisotropy =   109.9241

     71  Rh   Isotropic =  -314.8158   Anisotropy =   389.9162

     72  C    Isotropic =    71.4989   Anisotropy =   132.5983

     73  C    Isotropic =    66.9756   Anisotropy =   133.1798

     74  C    Isotropic =    71.8818   Anisotropy =   132.0408

     75  C    Isotropic =    66.9275   Anisotropy =   133.2251

     76  H    Isotropic =    26.7821   Anisotropy =     9.3996

     77  C    Isotropic =   154.2862   Anisotropy =    23.8228

     78  H    Isotropic =    25.9715   Anisotropy =     3.3225

     79  C    Isotropic =   148.7899   Anisotropy =    29.5813

     80  C    Isotropic =   154.3202   Anisotropy =    23.7365

     81  H    Isotropic =    26.8585   Anisotropy =     9.4445

     82  H    Isotropic =    25.9511   Anisotropy =     3.3141

     83  C    Isotropic =   148.7137   Anisotropy =    29.6722

     84  H    Isotropic =    29.8329   Anisotropy =     8.9151

     85  H    Isotropic =    29.9524   Anisotropy =    11.3461

     86  H    Isotropic =    29.2703   Anisotropy =    11.8621

     87  H    Isotropic =    29.1611   Anisotropy =     7.0623

     88  H    Isotropic =    29.9674   Anisotropy =    11.3230

     89  H    Isotropic =    29.8408   Anisotropy =     8.9394

     90  H    Isotropic =    29.2652   Anisotropy =    11.8753

     91  H    Isotropic =    29.1466   Anisotropy =     7.0939

     92  C    Isotropic =   104.5076   Anisotropy =    72.1865

     93  H    Isotropic =    27.4738   Anisotropy =     8.8528

     94  H    Isotropic =    27.4956   Anisotropy =     8.9356

 The electronic state is 1-A.
 Alpha  occ. eigenvalues --  -77.31031 -77.31028 -19.27444 -19.27427 -19.27218
 Alpha  occ. eigenvalues --  -19.27217 -10.33529 -10.33528 -10.33428 -10.33417
 Alpha  occ. eigenvalues --  -10.30262 -10.29991 -10.29990 -10.29767 -10.29751
 Alpha  occ. eigenvalues --  -10.28670 -10.28664 -10.28554 -10.28546 -10.28227
 Alpha  occ. eigenvalues --  -10.28225 -10.28036 -10.28031 -10.27813 -10.27807
 Alpha  occ. eigenvalues --  -10.27640 -10.27635 -10.27257 -10.27251 -10.27099
 Alpha  occ. eigenvalues --  -10.27097 -10.27032 -10.27029 -10.27008 -10.27004
 Alpha  occ. eigenvalues --  -10.26845 -10.26839 -10.26763 -10.26759 -10.25699
 Alpha  occ. eigenvalues --  -10.25693 -10.25539 -10.25533 -10.25474 -10.25468
 Alpha  occ. eigenvalues --  -10.25456 -10.25452 -10.25394 -10.25388 -10.25344
 Alpha  occ. eigenvalues --  -10.25339 -10.25279 -10.25274 -10.25162 -10.25158
 Alpha  occ. eigenvalues --   -6.76099  -6.76096  -4.92561  -4.92557  -4.92379
 Alpha  occ. eigenvalues --   -4.92375  -4.91900  -4.91897  -3.33187  -2.10329
 Alpha  occ. eigenvalues --   -2.09354  -2.06474  -1.19069  -1.18953  -1.15061
 Alpha  occ. eigenvalues --   -1.15042  -0.97782  -0.97709  -0.96107  -0.96102
 Alpha  occ. eigenvalues --   -0.95240  -0.92241  -0.91903  -0.90935  -0.90929
 Alpha  occ. eigenvalues --   -0.90106  -0.88923  -0.88899  -0.88748  -0.88316
 Alpha  occ. eigenvalues --   -0.84930  -0.84924  -0.83981  -0.82984  -0.82914
 Alpha  occ. eigenvalues --   -0.82871  -0.82177  -0.82004  -0.81126  -0.80030
 Alpha  occ. eigenvalues --   -0.80004  -0.78649  -0.77089  -0.75187  -0.72463
 Alpha  occ. eigenvalues --   -0.72222  -0.71896  -0.71612  -0.71329  -0.70673
 Alpha  occ. eigenvalues --   -0.70586  -0.69815  -0.69777  -0.68188  -0.68084
 Alpha  occ. eigenvalues --   -0.66528  -0.66497  -0.66449  -0.64474  -0.64057
 Alpha  occ. eigenvalues --   -0.63184  -0.62360  -0.61775  -0.61498  -0.61132
 Alpha  occ. eigenvalues --   -0.60987  -0.60443  -0.60036  -0.59819  -0.58382
 Alpha  occ. eigenvalues --   -0.58298  -0.58078  -0.57875  -0.56981  -0.56967
 Alpha  occ. eigenvalues --   -0.56634  -0.56283  -0.55545  -0.54795  -0.54726
 Alpha  occ. eigenvalues --   -0.54367  -0.54214  -0.54147  -0.53861  -0.53820
 Alpha  occ. eigenvalues --   -0.53254  -0.53177  -0.52710  -0.52684  -0.52287
 Alpha  occ. eigenvalues --   -0.52198  -0.51715  -0.51316  -0.51303  -0.51026
 Alpha  occ. eigenvalues --   -0.50742  -0.50723  -0.50574  -0.50415  -0.50041
 Alpha  occ. eigenvalues --   -0.48931  -0.48670  -0.48294  -0.48280  -0.48066
 Alpha  occ. eigenvalues --   -0.48047  -0.47919  -0.47627  -0.47249  -0.47089
 Alpha  occ. eigenvalues --   -0.46773  -0.46219  -0.45458  -0.45353  -0.45119
 Alpha  occ. eigenvalues --   -0.44904  -0.43902  -0.43815  -0.43712  -0.43558
 Alpha  occ. eigenvalues --   -0.43417  -0.43341  -0.42930  -0.42839  -0.42052
 Alpha  occ. eigenvalues --   -0.41634  -0.41572  -0.41504  -0.41079  -0.40966
 Alpha  occ. eigenvalues --   -0.40868  -0.40755  -0.38466  -0.38302  -0.37707
 Alpha  occ. eigenvalues --   -0.37680  -0.37077  -0.36780  -0.36666  -0.36653
 Alpha  occ. eigenvalues --   -0.35258  -0.33457  -0.33449  -0.33125  -0.33108
 Alpha  occ. eigenvalues --   -0.32054  -0.30933  -0.30916  -0.30090  -0.30082
 Alpha virt. eigenvalues --   -0.18378  -0.15445  -0.14351  -0.14280  -0.12819
 Alpha virt. eigenvalues --   -0.12759  -0.10829  -0.10684  -0.10558  -0.10147
 Alpha virt. eigenvalues --   -0.10098  -0.08541  -0.08388  -0.07247  -0.07052

 Mulliken charges:
               1
     1  P    0.773776
     2  P    0.775698
     3  O   -0.320270
     4  O   -0.320340
     5  O   -0.321168
     6  O   -0.319172
     7  C    0.125497
     8  C   -0.173023
     9  H    0.134654
    10  C   -0.153749
    11  H    0.120820
    12  C    0.026707
    13  C   -0.133167
    14  H    0.118196
    15  C   -0.085072
    16  H    0.124515
    17  C   -0.071084
    18  H    0.122899
    19  C   -0.118043
    20  H    0.154500
    21  C    0.002229
    22  C    0.017790
    23  C    0.011107
    24  C    0.034263
    25  C   -0.114521
    26  H    0.154591
    27  C   -0.071383
    28  H    0.124092
    29  C   -0.083272
    30  H    0.124960
    31  C   -0.140651
    32  H    0.116565
    33  C    0.017180
    34  C   -0.123670
    35  H    0.118676
    36  C   -0.233072
    37  H    0.137827
    38  C    0.075360
    39  C    0.124569
    40  C   -0.171636
    41  H    0.133976
    42  C   -0.154356
    43  H    0.120859
    44  C    0.026857
    45  C   -0.133141
    46  H    0.118218
    47  C   -0.085053
    48  H    0.124534
    49  C   -0.071161
    50  H    0.122895
    51  C   -0.118026
    52  H    0.154539
    53  C    0.002005
    54  C    0.017286
    55  C    0.010987
    56  C    0.035139
    57  C   -0.114191
    58  H    0.154631
    59  C   -0.071590
    60  H    0.124112
    61  C   -0.083001
    62  H    0.124978
    63  C   -0.141439
    64  H    0.116485
    65  C    0.017067
    66  C   -0.123291
    67  H    0.118729
    68  C   -0.230616
    69  H    0.136603
    70  C    0.074558
    71  Rh  -0.639390
    72  C   -0.039592
    73  C   -0.099851
    74  C   -0.040055
    75  C   -0.099948
    76  H    0.232786
    77  C   -0.352628
    78  H    0.197438
    79  C   -0.214860
    80  C   -0.354140
    81  H    0.234376
    82  H    0.198278
    83  C   -0.214842
    84  H    0.168238
    85  H    0.172717
    86  H    0.179817
    87  H    0.142423
    88  H    0.172721
    89  H    0.168332
    90  H    0.179683
    91  H    0.142438
    92  C   -0.583140
    93  H    0.228395
    94  H    0.229034
 Sum of Mulliken charges =   1.00000

 Dipole moment (field-independent basis, Debye):
    X=              0.0048    Y=             -3.4577    Z=              0.0316  Tot=              3.4578
 Quadrupole moment (field-independent basis, Debye-Ang):
   XX=           -225.2028   YY=           -271.3333   ZZ=           -323.0296
   XY=              0.3040   XZ=             -5.5107   YZ=              0.0263

 Summary of Natural Population Analysis:

                                       Natural Population
                Natural  -----------------------------------------------
    Atom  No    Charge         Core      Valence    Rydberg      Total
 -----------------------------------------------------------------------
      P    1    1.72513      9.99564     3.19042    0.08881    13.27487
      P    2    1.72603      9.99563     3.18943    0.08891    13.27397
      O    3   -0.73680      1.99980     6.72403    0.01298     8.73680
      O    4   -0.73337      1.99980     6.71963    0.01394     8.73337
      O    5   -0.73712      1.99980     6.72440    0.01292     8.73712
      O    6   -0.73333      1.99980     6.71952    0.01400     8.73333
      C    7    0.25543      1.99861     3.72281    0.02315     5.74457
      C    8   -0.24713      1.99906     4.23264    0.01543     6.24713
      H    9    0.22730      0.00000     0.77121    0.00149     0.77270
      C   10   -0.14517      1.99915     4.13169    0.01433     6.14517
      H   11    0.21901      0.00000     0.77945    0.00154     0.78099
      C   12   -0.06320      1.99910     4.04816    0.01594     6.06320
      C   13   -0.16981      1.99915     4.15642    0.01424     6.16981
      H   14    0.21417      0.00000     0.78420    0.00162     0.78583
      C   15   -0.19458      1.99920     4.18056    0.01483     6.19458
      H   16    0.21986      0.00000     0.77899    0.00115     0.78014
      C   17   -0.18377      1.99920     4.16976    0.01480     6.18377
      H   18    0.21858      0.00000     0.78023    0.00119     0.78142
      C   19   -0.18869      1.99913     4.17564    0.01391     6.18869
      H   20    0.22082      0.00000     0.77741    0.00177     0.77918
      C   21   -0.03133      1.99904     4.01530    0.01699     6.03133
      C   22   -0.06465      1.99887     4.04575    0.02003     6.06465
      C   23   -0.05868      1.99888     4.04039    0.01942     6.05868
      C   24   -0.03261      1.99904     4.01706    0.01651     6.03261
      C   25   -0.18750      1.99913     4.17428    0.01409     6.18750
      H   26    0.22213      0.00000     0.77615    0.00172     0.77787
      C   27   -0.18410      1.99920     4.17011    0.01479     6.18410
      H   28    0.21909      0.00000     0.77972    0.00119     0.78091
      C   29   -0.19424      1.99920     4.18024    0.01480     6.19424
      H   30    0.21996      0.00000     0.77886    0.00118     0.78004
      C   31   -0.17090      1.99914     4.15779    0.01397     6.17090
      H   32    0.21367      0.00000     0.78488    0.00145     0.78633
      C   33   -0.06433      1.99910     4.04927    0.01597     6.06433
      C   34   -0.14869      1.99914     4.13576    0.01379     6.14869
      H   35    0.21780      0.00000     0.78081    0.00139     0.78220
      C   36   -0.24994      1.99906     4.23575    0.01513     6.24994
      H   37    0.22637      0.00000     0.77196    0.00167     0.77363
      C   38    0.25285      1.99862     3.72606    0.02247     5.74715
      C   39    0.25553      1.99861     3.72275    0.02312     5.74447
      C   40   -0.24690      1.99906     4.23241    0.01542     6.24690
      H   41    0.22712      0.00000     0.77139    0.00149     0.77288
      C   42   -0.14513      1.99915     4.13165    0.01433     6.14513
      H   43    0.21902      0.00000     0.77944    0.00154     0.78098
      C   44   -0.06318      1.99910     4.04815    0.01594     6.06318
      C   45   -0.16979      1.99915     4.15641    0.01424     6.16979
      H   46    0.21419      0.00000     0.78419    0.00162     0.78581
      C   47   -0.19458      1.99920     4.18056    0.01483     6.19458
      H   48    0.21987      0.00000     0.77898    0.00115     0.78013
      C   49   -0.18378      1.99920     4.16977    0.01480     6.18378
      H   50    0.21858      0.00000     0.78024    0.00119     0.78142
      C   51   -0.18871      1.99913     4.17567    0.01391     6.18871
      H   52    0.22082      0.00000     0.77742    0.00177     0.77918
      C   53   -0.03133      1.99904     4.01531    0.01699     6.03133
      C   54   -0.06463      1.99887     4.04574    0.02002     6.06463
      C   55   -0.05870      1.99888     4.04041    0.01942     6.05870
      C   56   -0.03268      1.99904     4.01713    0.01651     6.03268
      C   57   -0.18751      1.99913     4.17428    0.01409     6.18751
      H   58    0.22214      0.00000     0.77615    0.00172     0.77786
      C   59   -0.18411      1.99920     4.17012    0.01479     6.18411
      H   60    0.21910      0.00000     0.77971    0.00119     0.78090
      C   61   -0.19423      1.99920     4.18024    0.01480     6.19423
      H   62    0.21996      0.00000     0.77886    0.00118     0.78004
      C   63   -0.17093      1.99914     4.15782    0.01397     6.17093
      H   64    0.21366      0.00000     0.78489    0.00145     0.78634
      C   65   -0.06434      1.99910     4.04927    0.01597     6.06434
      C   66   -0.14887      1.99914     4.13594    0.01378     6.14887
      H   67    0.21779      0.00000     0.78081    0.00139     0.78221
      C   68   -0.24975      1.99906     4.23554    0.01515     6.24975
      H   69    0.22655      0.00000     0.77178    0.00167     0.77345
      C   70    0.25271      1.99862     3.72619    0.02249     5.74729
     Rh   71   -0.56520     35.98399     9.55732    0.02390    45.56520
      C   72   -0.16635      1.99908     4.14687    0.02040     6.16635
      C   73   -0.14524      1.99907     4.12570    0.02047     6.14524
      C   74   -0.16728      1.99908     4.14779    0.02041     6.16728
      C   75   -0.14451      1.99907     4.12497    0.02047     6.14451
      H   76    0.23549      0.00000     0.76193    0.00258     0.76451
      C   77   -0.42513      1.99936     4.41359    0.01218     6.42513
      H   78    0.24057      0.00000     0.75783    0.00159     0.75943
      C   79   -0.42725      1.99935     4.41540    0.01250     6.42725
      C   80   -0.42499      1.99936     4.41345    0.01218     6.42499
      H   81    0.23578      0.00000     0.76167    0.00255     0.76422
      H   82    0.24073      0.00000     0.75767    0.00160     0.75927
      C   83   -0.42720      1.99935     4.41534    0.01250     6.42720
      H   84    0.21303      0.00000     0.78500    0.00197     0.78697
      H   85    0.23158      0.00000     0.76703    0.00139     0.76842
      H   86    0.23975      0.00000     0.75852    0.00173     0.76025
      H   87    0.22443      0.00000     0.77407    0.00150     0.77557
      H   88    0.23161      0.00000     0.76700    0.00140     0.76839
      H   89    0.21298      0.00000     0.78505    0.00197     0.78702
      H   90    0.23971      0.00000     0.75856    0.00173     0.76029
      H   91    0.22443      0.00000     0.77407    0.00150     0.77557
      C   92   -1.10060      1.99945     5.08481    0.01634     7.10060
      H   93    0.28876      0.00000     0.70942    0.00181     0.71124
      H   94    0.28876      0.00000     0.70939    0.00184     0.71124
 =======================================================================
   * Total *    1.00000    161.92965   274.95841    1.11194   438.00000

 Normal termination of Gaussian 16 at Wed Nov  6 00:37:26 2024.
