 Gaussian 16, Revision B.01,
 Gaussian 16:  ES64L-G16RevB.01 20-Dec-2017

 ------------------------------------------
 # nmr=giao b3lyp/genecp pop=nbo scfcyc=200
 ------------------------------------------

 ---------
 MB-19_SPE
 ---------
 Symbolic Z-matrix:
 Charge =  1 Multiplicity = 1

                         Standard orientation:
 ---------------------------------------------------------------------
 Center     Atomic      Atomic             Coordinates (Angstroms)
 Number     Number       Type             X           Y           Z
 ---------------------------------------------------------------------
      1         15           0        0.761379   -1.248091    2.004321
      2         15           0       -1.085560    0.024561    0.368661
      3          6           0        1.635039   -0.933151    3.598851
      4          1           0        1.086089   -1.371111    4.433851
      5          1           0        1.738630    0.139929    3.755821
      6          1           0        2.631289   -1.375642    3.560091
      7          6           0        0.522818   -3.077300    1.983771
      8          1           0        0.048138   -3.414160    2.906911
      9          1           0        1.490247   -3.569431    1.880061
     10          1           0       -0.099482   -3.355670    1.134271
     11          6           0       -0.952140   -0.517939    2.161171
     12          1           0       -0.910340    0.359481    2.807261
     13          1           0       -1.737781   -1.184379    2.517531
     14          6           0       -2.029019    1.604841    0.314141
     15          6           0       -3.021718    1.819332   -0.645809
     16          1           0       -3.301789    1.030022   -1.330739
     17          6           0       -3.668608    3.049413   -0.719169
     18          1           0       -4.440827    3.203263   -1.462309
     19          6           0       -3.330157    4.073172    0.158041
     20          1           0       -3.838196    5.027383    0.101171
     21          6           0       -2.333147    3.869672    1.108321
     22          1           0       -2.062906    4.664941    1.791571
     23          6           0       -1.679148    2.646321    1.181331
     24          1           0       -0.893458    2.513761    1.915781
     25          6           0       -2.145361   -1.245498   -0.432299
     26          6           0       -1.659121   -1.957779   -1.530839
     27          1           0       -0.665231   -1.751580   -1.907939
     28          6           0       -2.443862   -2.936018   -2.135669
     29          1           0       -2.060612   -3.483299   -2.987629
     30          6           0       -3.715452   -3.208767   -1.645439
     31          1           0       -4.325953   -3.969407   -2.115459
     32          6           0       -4.206272   -2.502987   -0.548659
     33          1           0       -5.197202   -2.713746   -0.166689
     34          6           0       -3.427131   -1.525767    0.056851
     35          1           0       -3.825231   -0.977197    0.902311
     36         45           0        1.247390   -0.099391    0.010111
     37          6           0        3.483590    0.285797    0.262311
     38          6           0        3.307659   -0.889693   -0.437319
     39          6           0        1.499251    0.673009   -2.123309
     40          6           0        1.462991    1.748219   -1.260489
     41          6           0        3.860431    1.625027   -0.343649
     42          1           0        3.635510    0.202467    1.332831
     43          1           0        3.364479   -1.815623    0.126991
     44          6           0        3.370389   -1.071053   -1.933819
     45          6           0        2.748700    0.083478   -2.750759
     46          1           0        0.564060    0.403249   -2.602769
     47          6           0        2.645542    2.504608   -0.707709
     48          1           0        0.512612    2.258950   -1.145829
     49          1           0        4.477072    2.168107    0.374351
     50          1           0        4.490811    1.465277   -1.217959
     51          1           0        4.411749   -1.224233   -2.243239
     52          1           0        2.850699   -2.000822   -2.175899
     53          1           0        3.483441    0.871317   -2.914729
     54          1           0        2.492850   -0.296222   -3.741199
     55          1           0        2.309582    3.037888    0.184111
     56          1           0        2.950243    3.280418   -1.421279
 ---------------------------------------------------------------------

 SCF Done:  E(RB3LYP) =  -1688.02903520     A.U. after   16 cycles

      1  P    Isotropic =   339.5137   Anisotropy =    43.4906

      2  P    Isotropic =   316.5905   Anisotropy =   108.3283

      3  C    Isotropic =   167.1698   Anisotropy =    31.8313

      4  H    Isotropic =    30.3695   Anisotropy =    11.2202

      5  H    Isotropic =    30.4658   Anisotropy =     8.9881

      6  H    Isotropic =    30.5962   Anisotropy =     9.5800

      7  C    Isotropic =   166.4803   Anisotropy =    30.1915

      8  H    Isotropic =    30.7412   Anisotropy =    11.0419

      9  H    Isotropic =    30.7107   Anisotropy =     9.7430

     10  H    Isotropic =    30.8827   Anisotropy =     8.0511

     11  C    Isotropic =   130.7781   Anisotropy =    47.1047

     12  H    Isotropic =    28.1208   Anisotropy =     4.2098

     13  H    Isotropic =    28.7252   Anisotropy =     9.5738

     14  C    Isotropic =    44.7533   Anisotropy =   166.6017

     15  C    Isotropic =    47.1865   Anisotropy =   191.5946

     16  H    Isotropic =    25.0664   Anisotropy =    12.4587

     17  C    Isotropic =    48.4294   Anisotropy =   190.7662

     18  H    Isotropic =    24.3363   Anisotropy =     6.4063

     19  C    Isotropic =    46.0524   Anisotropy =   197.0695

     20  H    Isotropic =    24.0682   Anisotropy =     3.8858

     21  C    Isotropic =    48.6557   Anisotropy =   190.4597

     22  H    Isotropic =    23.9847   Anisotropy =     6.2173

     23  C    Isotropic =    50.0228   Anisotropy =   185.9920

     24  H    Isotropic =    24.0504   Anisotropy =    10.5049

     25  C    Isotropic =    46.6902   Anisotropy =   171.2913

     26  C    Isotropic =    41.2248   Anisotropy =   178.9162

     27  H    Isotropic =    23.4737   Anisotropy =    10.0292

     28  C    Isotropic =    48.9414   Anisotropy =   188.3980

     29  H    Isotropic =    23.9826   Anisotropy =     6.6435

     30  C    Isotropic =    43.9828   Anisotropy =   200.4887

     31  H    Isotropic =    23.8239   Anisotropy =     4.0357

     32  C    Isotropic =    47.2945   Anisotropy =   192.5067

     33  H    Isotropic =    23.9842   Anisotropy =     5.6486

     34  C    Isotropic =    46.2402   Anisotropy =   189.0246

     35  H    Isotropic =    24.3268   Anisotropy =    11.2209

     36  Rh   Isotropic =  -308.3422   Anisotropy =   342.8915

     37  C    Isotropic =    76.5917   Anisotropy =   124.1383

     38  C    Isotropic =    77.9207   Anisotropy =   114.6840

     39  C    Isotropic =    80.1125   Anisotropy =   118.7106

     40  C    Isotropic =    71.2468   Anisotropy =   124.5380

     41  C    Isotropic =   153.5405   Anisotropy =    25.3595

     42  H    Isotropic =    26.8753   Anisotropy =     7.2488

     43  H    Isotropic =    26.5407   Anisotropy =     5.6945

     44  C    Isotropic =   147.6487   Anisotropy =    29.3775

     45  C    Isotropic =   154.1315   Anisotropy =    24.4809

     46  H    Isotropic =    27.0504   Anisotropy =     6.5627

     47  C    Isotropic =   147.9076   Anisotropy =    29.6480

     48  H    Isotropic =    27.0464   Anisotropy =     4.2099

     49  H    Isotropic =    29.7925   Anisotropy =    11.5281

     50  H    Isotropic =    29.7151   Anisotropy =     9.1117

     51  H    Isotropic =    29.0177   Anisotropy =    12.5289

     52  H    Isotropic =    29.0584   Anisotropy =     8.3307

     53  H    Isotropic =    29.7915   Anisotropy =     9.1728

     54  H    Isotropic =    29.7971   Anisotropy =    11.5123

     55  H    Isotropic =    29.1900   Anisotropy =     7.7118

     56  H    Isotropic =    29.2821   Anisotropy =    11.9668

 The electronic state is 1-A.
 Alpha  occ. eigenvalues --  -77.24638 -77.24486 -10.31110 -10.30399 -10.30298
 Alpha  occ. eigenvalues --  -10.29885 -10.29811 -10.29776 -10.29696 -10.29495
 Alpha  occ. eigenvalues --  -10.29426 -10.29241 -10.29236 -10.29043 -10.28709
 Alpha  occ. eigenvalues --  -10.28493 -10.28414 -10.28380 -10.28178 -10.28124
 Alpha  occ. eigenvalues --  -10.28075 -10.27974 -10.27925 -10.27917 -10.27878
 Alpha  occ. eigenvalues --   -6.70619  -6.70520  -4.86906  -4.86841  -4.86815
 Alpha  occ. eigenvalues --   -4.86729  -4.86517  -4.86410  -3.32372  -2.09286
 Alpha  occ. eigenvalues --   -2.08599  -2.05814  -0.97568  -0.96787  -0.95114
 Alpha  occ. eigenvalues --   -0.90986  -0.89867  -0.88639  -0.87973  -0.86162
 Alpha  occ. eigenvalues --   -0.85939  -0.85573  -0.83451  -0.82171  -0.80996
 Alpha  occ. eigenvalues --   -0.78469  -0.75192  -0.72043  -0.71700  -0.71210
 Alpha  occ. eigenvalues --   -0.70960  -0.67804  -0.67454  -0.66520  -0.63261
 Alpha  occ. eigenvalues --   -0.63098  -0.61746  -0.60704  -0.57857  -0.57746
 Alpha  occ. eigenvalues --   -0.56957  -0.56886  -0.56587  -0.56417  -0.56104
 Alpha  occ. eigenvalues --   -0.55678  -0.55312  -0.54240  -0.53695  -0.53531
 Alpha  occ. eigenvalues --   -0.53310  -0.53224  -0.53130  -0.52878  -0.52528
 Alpha  occ. eigenvalues --   -0.51112  -0.49246  -0.48731  -0.48560  -0.48281
 Alpha  occ. eigenvalues --   -0.47638  -0.47029  -0.46857  -0.46594  -0.46004
 Alpha  occ. eigenvalues --   -0.45714  -0.44609  -0.44249  -0.44052  -0.43796
 Alpha  occ. eigenvalues --   -0.43263  -0.42109  -0.38658  -0.37477  -0.37149
 Alpha  occ. eigenvalues --   -0.37032  -0.36455  -0.36285  -0.35460  -0.35294
 Alpha  occ. eigenvalues --   -0.34636  -0.31580
 Alpha virt. eigenvalues --   -0.17058  -0.15374  -0.14335  -0.12834  -0.12401
 Alpha virt. eigenvalues --   -0.11487  -0.10209  -0.09304  -0.07985  -0.07733
 Alpha virt. eigenvalues --   -0.07132  -0.06563  -0.05944  -0.05398  -0.04526

 Mulliken charges:
               1
     1  P    0.339339
     2  P    0.335907
     3  C   -0.416237
     4  H    0.166001
     5  H    0.158304
     6  H    0.164875
     7  C   -0.429158
     8  H    0.160635
     9  H    0.161150
    10  H    0.171038
    11  C   -0.555263
    12  H    0.204385
    13  H    0.210506
    14  C   -0.139615
    15  C   -0.071955
    16  H    0.161052
    17  C   -0.097440
    18  H    0.138296
    19  C   -0.098586
    20  H    0.142705
    21  C   -0.096674
    22  H    0.134731
    23  C   -0.086754
    24  H    0.128906
    25  C   -0.253907
    26  C   -0.030139
    27  H    0.146769
    28  C   -0.109435
    29  H    0.134586
    30  C   -0.093616
    31  H    0.144593
    32  C   -0.084211
    33  H    0.140598
    34  C   -0.089940
    35  H    0.152335
    36  Rh  -0.507950
    37  C   -0.022233
    38  C   -0.084539
    39  C   -0.012070
    40  C   -0.101889
    41  C   -0.348420
    42  H    0.179898
    43  H    0.169344
    44  C   -0.213727
    45  C   -0.354726
    46  H    0.178857
    47  C   -0.229525
    48  H    0.214747
    49  H    0.170349
    50  H    0.167941
    51  H    0.174062
    52  H    0.131671
    53  H    0.168643
    54  H    0.170505
    55  H    0.132035
    56  H    0.173245
 Sum of Mulliken charges =   1.00000

 Dipole moment (field-independent basis, Debye):
    X=              0.3668    Y=             -1.2911    Z=              2.1305  Tot=              2.5180
 Quadrupole moment (field-independent basis, Debye-Ang):
   XX=           -140.1258   YY=           -149.5882   ZZ=           -155.1807
   XY=              0.5954   XZ=              2.8443   YZ=              0.3460

 Summary of Natural Population Analysis:

                                       Natural Population
                Natural  -----------------------------------------------
    Atom  No    Charge         Core      Valence    Rydberg      Total
 -----------------------------------------------------------------------
      P    1    1.11798      9.99682     3.83812    0.04707    13.88202
      P    2    1.13183      9.99641     3.81987    0.05189    13.86817
      C    3   -0.89936      1.99942     4.89085    0.00908     6.89936
      H    4    0.24105      0.00000     0.75721    0.00174     0.75895
      H    5    0.24268      0.00000     0.75623    0.00109     0.75732
      H    6    0.24354      0.00000     0.75538    0.00108     0.75646
      C    7   -0.89814      1.99943     4.88914    0.00958     6.89814
      H    8    0.23727      0.00000     0.76088    0.00185     0.76273
      H    9    0.24210      0.00000     0.75683    0.00107     0.75790
      H   10    0.24821      0.00000     0.75066    0.00113     0.75179
      C   11   -0.97300      1.99944     4.95610    0.01746     6.97300
      H   12    0.25863      0.00000     0.73989    0.00148     0.74137
      H   13    0.25511      0.00000     0.74292    0.00197     0.74489
      C   14   -0.34528      1.99900     4.32250    0.02378     6.34528
      C   15   -0.19337      1.99909     4.17901    0.01526     6.19337
      H   16    0.22360      0.00000     0.77464    0.00176     0.77640
      C   17   -0.18744      1.99920     4.17357    0.01467     6.18744
      H   18    0.22434      0.00000     0.77446    0.00121     0.77566
      C   19   -0.17825      1.99921     4.16438    0.01466     6.17825
      H   20    0.22459      0.00000     0.77425    0.00116     0.77541
      C   21   -0.19014      1.99920     4.17620    0.01474     6.19014
      H   22    0.22281      0.00000     0.77597    0.00123     0.77719
      C   23   -0.19873      1.99909     4.18429    0.01535     6.19873
      H   24    0.20699      0.00000     0.79101    0.00200     0.79301
      C   25   -0.35402      1.99900     4.33050    0.02451     6.35402
      C   26   -0.18572      1.99909     4.17099    0.01564     6.18572
      H   27    0.22068      0.00000     0.77739    0.00193     0.77932
      C   28   -0.19637      1.99920     4.18254    0.01464     6.19637
      H   29    0.22348      0.00000     0.77530    0.00122     0.77652
      C   30   -0.17207      1.99921     4.15834    0.01453     6.17207
      H   31    0.22517      0.00000     0.77368    0.00116     0.77483
      C   32   -0.19094      1.99920     4.17713    0.01461     6.19094
      H   33    0.22539      0.00000     0.77338    0.00122     0.77461
      C   34   -0.19223      1.99909     4.17703    0.01611     6.19223
      H   35    0.21749      0.00000     0.78046    0.00205     0.78251
     Rh   36   -0.44293     35.98554     9.43126    0.02613    45.44293
      C   37   -0.15917      1.99905     4.14028    0.01984     6.15917
      C   38   -0.16075      1.99906     4.14143    0.02027     6.16075
      C   39   -0.18029      1.99905     4.16137    0.01987     6.18029
      C   40   -0.14558      1.99906     4.12638    0.02014     6.14558
      C   41   -0.42545      1.99937     4.41410    0.01199     6.42545
      H   42    0.22202      0.00000     0.77620    0.00178     0.77798
      H   43    0.22337      0.00000     0.77492    0.00171     0.77663
      C   44   -0.42181      1.99936     4.40997    0.01249     6.42181
      C   45   -0.42427      1.99937     4.41311    0.01179     6.42427
      H   46    0.22819      0.00000     0.77016    0.00166     0.77181
      C   47   -0.42154      1.99936     4.40976    0.01242     6.42154
      H   48    0.23274      0.00000     0.76539    0.00188     0.76726
      H   49    0.22943      0.00000     0.76918    0.00139     0.77057
      H   50    0.21541      0.00000     0.78265    0.00194     0.78459
      H   51    0.23571      0.00000     0.76250    0.00179     0.76429
      H   52    0.21840      0.00000     0.78007    0.00153     0.78160
      H   53    0.21512      0.00000     0.78295    0.00194     0.78488
      H   54    0.22934      0.00000     0.76927    0.00139     0.77066
      H   55    0.21883      0.00000     0.77962    0.00154     0.78117
      H   56    0.23537      0.00000     0.76283    0.00179     0.76463
 =======================================================================
   * Total *    1.00000    101.96032   139.50447    0.53521   242.00000

 Normal termination of Gaussian 16 at Tue Jan 21 10:13:06 2025.
