 Gaussian 16, Revision B.01,
 Gaussian 16:  ES64L-G16RevB.01 20-Dec-2017

 ------------------------------------------
 # nmr=giao b3lyp/genecp pop=nbo scfcyc=200
 ------------------------------------------

 ----------
 MB-102_SPE
 ----------
 Symbolic Z-matrix:
 Charge =  1 Multiplicity = 1

                         Standard orientation:
 ---------------------------------------------------------------------
 Center     Atomic      Atomic             Coordinates (Angstroms)
 Number     Number       Type             X           Y           Z
 ---------------------------------------------------------------------
      1         15           0       -1.195899    0.233020   -0.282710
      2          6           0       -2.782959   -0.546060   -0.895280
      3          6           0       -2.760429   -1.628310   -1.807110
      4          6           0       -3.966899   -2.162940   -2.258900
      5          6           0       -5.202039   -1.701500   -1.820270
      6          6           0       -5.199029   -0.713440   -0.842100
      7          6           0       -4.026999   -0.138480   -0.352250
      8          1           0       -6.143779   -0.385580   -0.422910
      9          1           0       -3.931709   -2.984960   -2.965530
     10          6           0       -1.495749    2.052840    0.014190
     11          6           0       -1.226359    2.640340    1.270820
     12          6           0       -1.386489    4.017960    1.423590
     13          6           0       -1.824519    4.839480    0.390580
     14          6           0       -2.096749    4.239960   -0.834380
     15          6           0       -1.938229    2.871850   -1.053000
     16          1           0       -2.444399    4.855400   -1.657270
     17          1           0       -1.169309    4.458480    2.390300
     18          6           0        0.132061    0.362720   -1.618150
     19         15           0        1.591701   -0.057730   -0.521730
     20          1           0        0.019971   -0.391330   -2.386890
     21          1           0        0.184881    1.339140   -2.092600
     22         45           0        0.219711   -1.094530    1.120730
     23          6           0       -1.142169   -1.789960    2.819630
     24          6           0       -1.362779   -2.587480    1.716020
     25          6           0        1.521181   -2.878390    1.637980
     26          6           0        1.753471   -1.871820    2.555970
     27          6           0       -0.323229   -2.175400    4.037340
     28          1           0       -1.817649   -0.953870    2.958020
     29          1           0       -2.210949   -2.339050    1.088050
     30          6           0       -0.790449   -3.962900    1.474350
     31          6           0        0.685241   -4.120030    1.891940
     32          1           0        2.207741   -2.949810    0.803060
     33          6           0        1.163841   -1.767490    3.941500
     34          1           0        2.621071   -1.241470    2.390590
     35          1           0       -0.757419   -1.693900    4.915080
     36          1           0       -0.410919   -3.247790    4.212270
     37          1           0       -1.405809   -4.711470    1.989230
     38          1           0       -0.886989   -4.181610    0.409150
     39          1           0        0.756261   -4.397240    2.943700
     40          1           0        1.119551   -4.951570    1.334250
     41          1           0        1.272701   -0.732290    4.272080
     42          1           0        1.757961   -2.367060    4.642530
     43          6           0        2.750081   -1.125560   -1.558440
     44          6           0        2.937301   -0.707240   -3.028630
     45          6           0        4.114121   -1.352560   -0.879200
     46          1           0        2.216951   -2.084310   -1.556870
     47          6           0        3.758551   -1.761220   -3.787620
     48          1           0        3.453781    0.253360   -3.081600
     49          1           0        1.972141   -0.572720   -3.521930
     50          6           0        4.937951   -2.400200   -1.642030
     51          1           0        4.670751   -0.411380   -0.857570
     52          1           0        3.987351   -1.664140    0.160600
     53          6           0        5.109921   -2.020180   -3.115400
     54          1           0        3.903591   -1.433460   -4.819810
     55          1           0        3.189371   -2.696550   -3.835470
     56          1           0        5.912611   -2.516830   -1.162270
     57          1           0        4.437971   -3.372880   -1.571620
     58          1           0        5.649351   -2.807900   -3.646110
     59          1           0        5.728911   -1.118700   -3.186970
     60          6           0        2.340361    1.620140   -0.106540
     61          6           0        3.254131    1.590270    1.132570
     62          6           0        3.017261    2.359080   -1.273660
     63          1           0        1.443291    2.187700    0.168110
     64          6           0        3.672201    3.011130    1.538990
     65          1           0        4.150871    0.999760    0.922820
     66          1           0        2.740871    1.103830    1.964780
     67          6           0        3.419841    3.781600   -0.856290
     68          1           0        3.915481    1.816620   -1.581050
     69          1           0        2.358731    2.401590   -2.144850
     70          6           0        4.324041    3.769540    0.379360
     71          1           0        4.353601    2.960540    2.391790
     72          1           0        2.787011    3.560310    1.879050
     73          1           0        3.921791    4.276840   -1.691080
     74          1           0        2.516731    4.364490   -0.644360
     75          1           0        4.559441    4.791860    0.683990
     76          1           0        5.278551    3.294670    0.125140
     77          6           0       -2.255499    2.379340   -2.448730
     78          1           0       -3.083339    2.955020   -2.863690
     79          1           0       -1.405029    2.526260   -3.121000
     80          1           0       -2.536359    1.330820   -2.489010
     81          6           0       -0.814869    1.870270    2.501380
     82          1           0       -1.684759    1.422970    2.991250
     83          1           0       -0.118599    1.055550    2.282610
     84          1           0       -0.347189    2.536640    3.226090
     85          6           0       -2.028749    6.316030    0.599050
     86          1           0       -1.842149    6.878270   -0.316710
     87          1           0       -3.058529    6.522870    0.904590
     88          1           0       -1.373089    6.703600    1.379490
     89          6           0       -4.191729    0.858710    0.772750
     90          1           0       -3.438659    0.736570    1.550930
     91          1           0       -4.137559    1.891450    0.427720
     92          1           0       -5.165709    0.717590    1.240590
     93          6           0       -1.505319   -2.306360   -2.310350
     94          1           0       -1.114899   -1.836610   -3.217040
     95          1           0       -0.713039   -2.324140   -1.559930
     96          1           0       -1.731619   -3.340390   -2.570410
     97          6           0       -6.488069   -2.263350   -2.362420
     98          1           0       -6.836399   -1.672660   -3.214780
     99          1           0       -6.362169   -3.290380   -2.706970
    100          1           0       -7.278799   -2.247950   -1.611340
 ---------------------------------------------------------------------

 SCF Done:  E(RB3LYP) =  -2314.82436839     A.U. after   17 cycles

      1  P    Isotropic =   336.4390   Anisotropy =   120.9085

      2  C    Isotropic =    48.3018   Anisotropy =   130.7849

      3  C    Isotropic =    37.5187   Anisotropy =   186.8973

      4  C    Isotropic =    46.9147   Anisotropy =   136.5087

      5  C    Isotropic =    33.4202   Anisotropy =   205.0884

      6  C    Isotropic =    46.3342   Anisotropy =   136.5602

      7  C    Isotropic =    34.6628   Anisotropy =   193.5695

      8  H    Isotropic =    24.9051   Anisotropy =     9.7009

      9  H    Isotropic =    24.6097   Anisotropy =     9.9621

     10  C    Isotropic =    45.3790   Anisotropy =   140.1302

     11  C    Isotropic =    35.5013   Anisotropy =   196.5032

     12  C    Isotropic =    48.3605   Anisotropy =   138.1622

     13  C    Isotropic =    32.4567   Anisotropy =   207.8821

     14  C    Isotropic =    46.9535   Anisotropy =   144.8207

     15  C    Isotropic =    33.7144   Anisotropy =   193.6544

     16  H    Isotropic =    24.6552   Anisotropy =     9.2551

     17  H    Isotropic =    24.6352   Anisotropy =     9.5501

     18  C    Isotropic =   137.7137   Anisotropy =    49.0493

     19  P    Isotropic =   310.2230   Anisotropy =    98.4587

     20  H    Isotropic =    27.4445   Anisotropy =     3.7801

     21  H    Isotropic =    29.0731   Anisotropy =     7.5166

     22  Rh   Isotropic =  -340.0250   Anisotropy =   337.6320

     23  C    Isotropic =    81.5032   Anisotropy =   116.6132

     24  C    Isotropic =    71.0936   Anisotropy =   124.3423

     25  C    Isotropic =    80.2669   Anisotropy =   120.3687

     26  C    Isotropic =    82.8998   Anisotropy =   109.0069

     27  C    Isotropic =   154.5165   Anisotropy =    24.8136

     28  H    Isotropic =    27.3487   Anisotropy =     5.6480

     29  H    Isotropic =    27.4842   Anisotropy =     5.4504

     30  C    Isotropic =   147.8203   Anisotropy =    28.8406

     31  C    Isotropic =   153.2764   Anisotropy =    26.4119

     32  H    Isotropic =    26.9645   Anisotropy =     6.6988

     33  C    Isotropic =   146.8890   Anisotropy =    29.3881

     34  H    Isotropic =    26.4503   Anisotropy =     3.9589

     35  H    Isotropic =    29.9005   Anisotropy =    11.3954

     36  H    Isotropic =    29.9190   Anisotropy =     9.8463

     37  H    Isotropic =    29.4216   Anisotropy =    12.2633

     38  H    Isotropic =    29.2719   Anisotropy =     6.7607

     39  H    Isotropic =    29.8006   Anisotropy =     9.6675

     40  H    Isotropic =    29.8339   Anisotropy =    11.1191

     41  H    Isotropic =    29.0891   Anisotropy =     7.2556

     42  H    Isotropic =    29.1254   Anisotropy =    12.8467

     43  C    Isotropic =   131.6828   Anisotropy =    34.3223

     44  C    Isotropic =   151.9461   Anisotropy =    15.1983

     45  C    Isotropic =   150.8984   Anisotropy =    13.0082

     46  H    Isotropic =    29.9014   Anisotropy =     6.2550

     47  C    Isotropic =   152.9938   Anisotropy =     9.1060

     48  H    Isotropic =    30.4489   Anisotropy =     6.0844

     49  H    Isotropic =    30.2228   Anisotropy =     6.4079

     50  C    Isotropic =   153.4464   Anisotropy =     8.4521

     51  H    Isotropic =    30.3723   Anisotropy =     6.4268

     52  H    Isotropic =    30.5277   Anisotropy =     6.8917

     53  C    Isotropic =   155.6454   Anisotropy =     1.7191

     54  H    Isotropic =    30.0107   Anisotropy =    10.7693

     55  H    Isotropic =    30.6369   Anisotropy =     7.8634

     56  H    Isotropic =    30.0269   Anisotropy =    10.4886

     57  H    Isotropic =    30.6263   Anisotropy =     7.2796

     58  H    Isotropic =    30.0947   Anisotropy =    11.9449

     59  H    Isotropic =    30.5628   Anisotropy =     8.8799

     60  C    Isotropic =   132.2619   Anisotropy =    33.7877

     61  C    Isotropic =   148.9276   Anisotropy =    16.1542

     62  C    Isotropic =   152.1242   Anisotropy =    14.1392

     63  H    Isotropic =    30.7108   Anisotropy =     9.6136

     64  C    Isotropic =   153.3349   Anisotropy =     8.2181

     65  H    Isotropic =    30.3782   Anisotropy =     5.2672

     66  H    Isotropic =    29.7787   Anisotropy =     7.6210

     67  C    Isotropic =   153.6694   Anisotropy =     7.5425

     68  H    Isotropic =    30.5583   Anisotropy =     7.8173

     69  H    Isotropic =    30.4761   Anisotropy =     3.2419

     70  C    Isotropic =   155.8354   Anisotropy =     2.6372

     71  H    Isotropic =    30.0437   Anisotropy =    10.2600

     72  H    Isotropic =    30.7636   Anisotropy =     6.7465

     73  H    Isotropic =    30.2564   Anisotropy =    10.8342

     74  H    Isotropic =    31.3017   Anisotropy =     7.0431

     75  H    Isotropic =    30.2658   Anisotropy =    11.5810

     76  H    Isotropic =    30.6482   Anisotropy =     9.5510

     77  C    Isotropic =   161.7939   Anisotropy =    28.5432

     78  H    Isotropic =    29.7998   Anisotropy =     9.8881

     79  H    Isotropic =    29.7638   Anisotropy =     6.7660

     80  H    Isotropic =    30.1302   Anisotropy =    11.1901

     81  C    Isotropic =   154.4030   Anisotropy =    31.5002

     82  H    Isotropic =    29.2622   Anisotropy =     5.1021

     83  H    Isotropic =    26.6715   Anisotropy =    12.5636

     84  H    Isotropic =    29.1711   Anisotropy =     7.4584

     85  C    Isotropic =   162.2728   Anisotropy =    42.8215

     86  H    Isotropic =    29.6157   Anisotropy =     8.3577

     87  H    Isotropic =    29.2753   Anisotropy =     9.8483

     88  H    Isotropic =    29.6433   Anisotropy =     7.7124

     89  C    Isotropic =   158.1824   Anisotropy =    25.6737

     90  H    Isotropic =    30.8246   Anisotropy =     6.4652

     91  H    Isotropic =    30.6336   Anisotropy =     8.2191

     92  H    Isotropic =    30.1292   Anisotropy =    10.2929

     93  C    Isotropic =   156.5022   Anisotropy =    22.2528

     94  H    Isotropic =    28.9144   Anisotropy =     5.6746

     95  H    Isotropic =    28.3197   Anisotropy =     8.6795

     96  H    Isotropic =    29.1338   Anisotropy =     8.3878

     97  C    Isotropic =   162.3003   Anisotropy =    43.0362

     98  H    Isotropic =    29.3709   Anisotropy =     9.6085

     99  H    Isotropic =    29.6543   Anisotropy =     8.0917

    100  H    Isotropic =    29.6425   Anisotropy =     8.3856

 The electronic state is 1-A.
 Alpha  occ. eigenvalues --  -77.23306 -77.22147 -10.29281 -10.29207 -10.28913
 Alpha  occ. eigenvalues --  -10.28832 -10.28767 -10.28683 -10.28663 -10.28644
 Alpha  occ. eigenvalues --  -10.28633 -10.28515 -10.28449 -10.28432 -10.28154
 Alpha  occ. eigenvalues --  -10.27614 -10.27231 -10.27112 -10.27068 -10.26943
 Alpha  occ. eigenvalues --  -10.26934 -10.26848 -10.26630 -10.26623 -10.26544
 Alpha  occ. eigenvalues --  -10.26421 -10.26098 -10.25961 -10.25935 -10.25829
 Alpha  occ. eigenvalues --  -10.25771 -10.25643 -10.25547 -10.25409 -10.25330
 Alpha  occ. eigenvalues --  -10.25143 -10.25121 -10.24915 -10.24785 -10.24623
 Alpha  occ. eigenvalues --  -10.24615  -6.69171  -6.68173  -4.85466  -4.85393
 Alpha  occ. eigenvalues --   -4.85082  -4.84466  -4.84360  -4.84081  -3.31086
 Alpha  occ. eigenvalues --   -2.07917  -2.07252  -2.04651  -0.96568  -0.95943
 Alpha  occ. eigenvalues --   -0.94043  -0.93696  -0.92637  -0.89257  -0.88665
 Alpha  occ. eigenvalues --   -0.88262  -0.88206  -0.87588  -0.87271  -0.86750
 Alpha  occ. eigenvalues --   -0.84011  -0.83613  -0.83550  -0.83345  -0.80056
 Alpha  occ. eigenvalues --   -0.79913  -0.79815  -0.78687  -0.77553  -0.77330
 Alpha  occ. eigenvalues --   -0.77277  -0.77058  -0.73539  -0.70985  -0.70355
 Alpha  occ. eigenvalues --   -0.70171  -0.70124  -0.70043  -0.67458  -0.67301
 Alpha  occ. eigenvalues --   -0.66609  -0.65787  -0.65467  -0.64886  -0.64593
 Alpha  occ. eigenvalues --   -0.64449  -0.62079  -0.59723  -0.59029  -0.58654
 Alpha  occ. eigenvalues --   -0.58047  -0.57830  -0.57151  -0.56599  -0.56029
 Alpha  occ. eigenvalues --   -0.55887  -0.54853  -0.54405  -0.53855  -0.53367
 Alpha  occ. eigenvalues --   -0.53285  -0.53235  -0.52983  -0.52708  -0.52457
 Alpha  occ. eigenvalues --   -0.52368  -0.52256  -0.52144  -0.52126  -0.51928
 Alpha  occ. eigenvalues --   -0.51471  -0.50547  -0.50218  -0.50112  -0.49961
 Alpha  occ. eigenvalues --   -0.49785  -0.49657  -0.49587  -0.49070  -0.48821
 Alpha  occ. eigenvalues --   -0.48441  -0.48186  -0.47900  -0.47830  -0.47602
 Alpha  occ. eigenvalues --   -0.47574  -0.47271  -0.47070  -0.46320  -0.46200
 Alpha  occ. eigenvalues --   -0.46048  -0.45958  -0.45535  -0.45374  -0.45119
 Alpha  occ. eigenvalues --   -0.44367  -0.44310  -0.43646  -0.43525  -0.43422
 Alpha  occ. eigenvalues --   -0.43356  -0.43051  -0.42916  -0.42480  -0.42436
 Alpha  occ. eigenvalues --   -0.41945  -0.41703  -0.41373  -0.41110  -0.40624
 Alpha  occ. eigenvalues --   -0.39805  -0.39547  -0.39370  -0.38481  -0.36819
 Alpha  occ. eigenvalues --   -0.35876  -0.34549  -0.34128  -0.33866  -0.33789
 Alpha  occ. eigenvalues --   -0.33496  -0.33191  -0.32950  -0.30052
 Alpha virt. eigenvalues --   -0.15227  -0.13965  -0.12315  -0.11214  -0.10855
 Alpha virt. eigenvalues --   -0.10263  -0.08992  -0.07870  -0.07390  -0.07077
 Alpha virt. eigenvalues --   -0.06803  -0.06235  -0.05682  -0.05245  -0.04514

 Mulliken charges:
               1
     1  P    0.153734
     2  C   -0.164663
     3  C    0.239106
     4  C   -0.207699
     5  C    0.177773
     6  C   -0.202920
     7  C    0.181637
     8  H    0.112414
     9  H    0.110616
    10  C   -0.216118
    11  C    0.252853
    12  C   -0.207439
    13  C    0.181065
    14  C   -0.208825
    15  C    0.153324
    16  H    0.116573
    17  H    0.110083
    18  C   -0.581975
    19  P    0.467976
    20  H    0.212310
    21  H    0.212408
    22  Rh  -0.574647
    23  C    0.000989
    24  C   -0.107048
    25  C   -0.048962
    26  C   -0.080363
    27  C   -0.346219
    28  H    0.170632
    29  H    0.236286
    30  C   -0.246331
    31  C   -0.348853
    32  H    0.190899
    33  C   -0.234725
    34  H    0.191277
    35  H    0.166945
    36  H    0.166610
    37  H    0.168973
    38  H    0.135187
    39  H    0.169567
    40  H    0.165437
    41  H    0.136189
    42  H    0.169163
    43  C   -0.221549
    44  C   -0.238940
    45  C   -0.301733
    46  H    0.160073
    47  C   -0.236211
    48  H    0.145761
    49  H    0.132621
    50  C   -0.250484
    51  H    0.140886
    52  H    0.150199
    53  C   -0.230310
    54  H    0.146418
    55  H    0.117680
    56  H    0.147492
    57  H    0.118401
    58  H    0.149172
    59  H    0.116669
    60  C   -0.164312
    61  C   -0.266297
    62  C   -0.252615
    63  H    0.156766
    64  C   -0.251789
    65  H    0.141508
    66  H    0.123404
    67  C   -0.254293
    68  H    0.123767
    69  H    0.138624
    70  C   -0.228548
    71  H    0.143719
    72  H    0.120662
    73  H    0.145917
    74  H    0.126252
    75  H    0.145765
    76  H    0.114848
    77  C   -0.469808
    78  H    0.159703
    79  H    0.151895
    80  H    0.181905
    81  C   -0.524645
    82  H    0.162290
    83  H    0.191187
    84  H    0.150855
    85  C   -0.447265
    86  H    0.141664
    87  H    0.158776
    88  H    0.139729
    89  C   -0.435691
    90  H    0.111896
    91  H    0.173482
    92  H    0.152561
    93  C   -0.579310
    94  H    0.171251
    95  H    0.171590
    96  H    0.158270
    97  C   -0.439404
    98  H    0.156490
    99  H    0.138787
   100  H    0.141029
 Sum of Mulliken charges =   1.00000

 Dipole moment (field-independent basis, Debye):
    X=              0.0535    Y=             -0.3416    Z=             -0.4005  Tot=              0.5291
 Quadrupole moment (field-independent basis, Debye-Ang):
   XX=           -232.7314   YY=           -237.6346   ZZ=           -253.9883
   XY=             -1.6675   XZ=              1.1296   YZ=              1.0924

 Summary of Natural Population Analysis:

                                       Natural Population
                Natural  -----------------------------------------------
    Atom  No    Charge         Core      Valence    Rydberg      Total
 -----------------------------------------------------------------------
      P    1    1.07525      9.99648     3.87777    0.05049    13.92475
      C    2   -0.33891      1.99882     4.31950    0.02058     6.33891
      C    3   -0.00416      1.99905     3.98754    0.01756     6.00416
      C    4   -0.20307      1.99901     4.19038    0.01369     6.20307
      C    5    0.02283      1.99910     3.96386    0.01421     5.97717
      C    6   -0.20057      1.99901     4.18788    0.01368     6.20057
      C    7    0.00468      1.99906     3.97902    0.01724     5.99532
      H    8    0.20921      0.00000     0.78902    0.00177     0.79079
      H    9    0.20768      0.00000     0.79054    0.00178     0.79232
      C   10   -0.33448      1.99882     4.31206    0.02360     6.33448
      C   11    0.00108      1.99904     3.98144    0.01844     5.99892
      C   12   -0.20782      1.99900     4.19478    0.01404     6.20782
      C   13    0.02730      1.99910     3.95916    0.01443     5.97270
      C   14   -0.20684      1.99901     4.19425    0.01358     6.20684
      C   15    0.00738      1.99904     3.97485    0.01872     5.99262
      H   16    0.20967      0.00000     0.78849    0.00183     0.79033
      H   17    0.20823      0.00000     0.78998    0.00180     0.79177
      C   18   -0.97976      1.99939     4.96355    0.01681     6.97976
      P   19    1.12421      9.99667     3.83066    0.04847    13.87579
      H   20    0.25964      0.00000     0.73806    0.00230     0.74036
      H   21    0.24709      0.00000     0.75035    0.00257     0.75291
     Rh   22   -0.39758     35.98577     9.38386    0.02795    45.39758
      C   23   -0.18874      1.99908     4.17013    0.01953     6.18874
      C   24   -0.15521      1.99910     4.13572    0.02039     6.15521
      C   25   -0.16317      1.99906     4.14416    0.01994     6.16317
      C   26   -0.17855      1.99908     4.15939    0.02007     6.17855
      C   27   -0.42211      1.99936     4.41093    0.01182     6.42211
      H   28    0.22227      0.00000     0.77537    0.00236     0.77773
      H   29    0.23377      0.00000     0.76406    0.00217     0.76623
      C   30   -0.41599      1.99935     4.40362    0.01301     6.41599
      C   31   -0.42304      1.99936     4.41167    0.01201     6.42304
      H   32    0.21911      0.00000     0.77860    0.00229     0.78089
      C   33   -0.41560      1.99935     4.40362    0.01262     6.41560
      H   34    0.22445      0.00000     0.77326    0.00228     0.77555
      H   35    0.22723      0.00000     0.77126    0.00151     0.77277
      H   36    0.21474      0.00000     0.78329    0.00196     0.78526
      H   37    0.23190      0.00000     0.76621    0.00189     0.76810
      H   38    0.21396      0.00000     0.78429    0.00174     0.78604
      H   39    0.21542      0.00000     0.78260    0.00198     0.78458
      H   40    0.22590      0.00000     0.77256    0.00154     0.77410
      H   41    0.21468      0.00000     0.78369    0.00163     0.78532
      H   42    0.23166      0.00000     0.76640    0.00194     0.76834
      C   43   -0.47080      1.99935     4.45377    0.01768     6.47080
      C   44   -0.39285      1.99938     4.38244    0.01103     6.39285
      C   45   -0.39288      1.99937     4.38275    0.01075     6.39288
      H   46    0.22081      0.00000     0.77595    0.00325     0.77919
      C   47   -0.38227      1.99942     4.37308    0.00977     6.38227
      H   48    0.20007      0.00000     0.79773    0.00220     0.79993
      H   49    0.20024      0.00000     0.79771    0.00205     0.79976
      C   50   -0.38310      1.99942     4.37386    0.00983     6.38310
      H   51    0.19683      0.00000     0.80078    0.00239     0.80317
      H   52    0.20475      0.00000     0.79321    0.00204     0.79525
      C   53   -0.38959      1.99942     4.38067    0.00950     6.38959
      H   54    0.21557      0.00000     0.78307    0.00136     0.78443
      H   55    0.19164      0.00000     0.80652    0.00183     0.80836
      H   56    0.21553      0.00000     0.78310    0.00136     0.78447
      H   57    0.19169      0.00000     0.80645    0.00185     0.80831
      H   58    0.21592      0.00000     0.78273    0.00135     0.78408
      H   59    0.19370      0.00000     0.80450    0.00179     0.80630
      C   60   -0.47626      1.99935     4.45808    0.01883     6.47626
      C   61   -0.38891      1.99938     4.37905    0.01048     6.38891
      C   62   -0.39335      1.99938     4.38268    0.01129     6.39335
      H   63    0.23076      0.00000     0.76572    0.00352     0.76924
      C   64   -0.38181      1.99942     4.37250    0.00988     6.38181
      H   65    0.19539      0.00000     0.80239    0.00221     0.80461
      H   66    0.20841      0.00000     0.78970    0.00189     0.79159
      C   67   -0.38155      1.99941     4.37226    0.00988     6.38155
      H   68    0.19343      0.00000     0.80416    0.00241     0.80657
      H   69    0.20251      0.00000     0.79569    0.00179     0.79749
      C   70   -0.38915      1.99942     4.38015    0.00957     6.38915
      H   71    0.21343      0.00000     0.78515    0.00142     0.78657
      H   72    0.19006      0.00000     0.80796    0.00198     0.80994
      H   73    0.21409      0.00000     0.78448    0.00142     0.78591
      H   74    0.19220      0.00000     0.80589    0.00191     0.80780
      H   75    0.21461      0.00000     0.78403    0.00136     0.78539
      H   76    0.19295      0.00000     0.80533    0.00172     0.80705
      C   77   -0.63108      1.99939     4.62325    0.00845     6.63108
      H   78    0.23039      0.00000     0.76824    0.00137     0.76961
      H   79    0.21701      0.00000     0.78144    0.00155     0.78299
      H   80    0.22304      0.00000     0.77458    0.00238     0.77696
      C   81   -0.59953      1.99937     4.59198    0.00818     6.59953
      H   82    0.21560      0.00000     0.78255    0.00185     0.78440
      H   83    0.22113      0.00000     0.77597    0.00290     0.77887
      H   84    0.22214      0.00000     0.77647    0.00139     0.77786
      C   85   -0.61715      1.99941     4.61077    0.00697     6.61715
      H   86    0.22019      0.00000     0.77865    0.00116     0.77981
      H   87    0.22780      0.00000     0.77087    0.00134     0.77220
      H   88    0.21883      0.00000     0.78000    0.00117     0.78117
      C   89   -0.61247      1.99938     4.60536    0.00773     6.61247
      H   90    0.20500      0.00000     0.79312    0.00189     0.79500
      H   91    0.22915      0.00000     0.76881    0.00204     0.77085
      H   92    0.22335      0.00000     0.77540    0.00125     0.77665
      C   93   -0.61555      1.99938     4.60825    0.00792     6.61555
      H   94    0.21343      0.00000     0.78490    0.00168     0.78657
      H   95    0.21595      0.00000     0.78221    0.00184     0.78405
      H   96    0.22732      0.00000     0.77137    0.00131     0.77268
      C   97   -0.61564      1.99941     4.60936    0.00686     6.61564
      H   98    0.22673      0.00000     0.77194    0.00133     0.77327
      H   99    0.21847      0.00000     0.78036    0.00117     0.78153
      H  100    0.22005      0.00000     0.77877    0.00118     0.77995
 =======================================================================
   * Total *    1.00000    133.94917   231.28602    0.76481   366.00000

 Normal termination of Gaussian 16 at Tue Jan 21 18:55:27 2025.
