 Gaussian 16, Revision B.01,
 Gaussian 16:  ES64L-G16RevB.01 20-Dec-2017

 ------------------------------------------
 # nmr=giao b3lyp/genecp pop=nbo scfcyc=200
 ------------------------------------------

 ----------
 MB-134_SPE
 ----------
 Symbolic Z-matrix:
 Charge =  1 Multiplicity = 1

                         Standard orientation:
 ---------------------------------------------------------------------
 Center     Atomic      Atomic             Coordinates (Angstroms)
 Number     Number       Type             X           Y           Z
 ---------------------------------------------------------------------
      1         15           0       -1.500880   -0.540639   -0.161250
      2          6           0       -1.809210   -0.029039    1.576900
      3          6           0       -2.166991   -1.007728    2.510510
      4          6           0       -2.440260   -0.656258    3.827210
      5          6           0       -2.354719    0.674042    4.225060
      6          6           0       -1.996068    1.653221    3.303870
      7          6           0       -1.723839    1.306511    1.985510
      8          1           0       -1.444798    2.084641    1.287030
      9          1           0       -1.926907    2.689411    3.609600
     10          1           0       -2.563909    0.947372    5.251600
     11          1           0       -2.717241   -1.420888    4.541980
     12          1           0       -2.226691   -2.045618    2.209320
     13          6           0       -0.128399    0.556430   -0.793380
     14         15           0        1.258200   -0.629791   -0.414390
     15          1           0       -0.247189    0.641600   -1.873660
     16          1           0       -0.037188    1.551040   -0.363060
     17         45           0       -0.194352   -2.518160   -0.495560
     18          6           0       -1.658883   -4.229099   -0.253560
     19          6           0       -1.697183   -3.782739   -1.561510
     20          6           0        1.182187   -4.020901   -1.507030
     21          6           0        1.244787   -4.192831   -0.138320
     22          6           0       -0.948304   -5.481609    0.224820
     23          1           0       -2.408703   -3.829848    0.421190
     24          1           0       -2.489122   -3.091928   -1.826550
     25          6           0       -1.009953   -4.401549   -2.753480
     26          6           0        0.415626   -4.910741   -2.465890
     27          1           0        1.936027   -3.391032   -1.963710
     28          6           0        0.509446   -5.232081    0.672280
     29          1           0        2.067357   -3.717322    0.386000
     30          1           0       -1.502475   -5.895649    1.068570
     31          1           0       -0.981135   -6.241449   -0.555980
     32          1           0       -1.627494   -5.216329   -3.151950
     33          1           0       -0.967703   -3.646269   -3.540950
     34          1           0        0.387215   -5.929191   -2.078970
     35          1           0        0.964446   -4.960961   -3.407580
     36          1           0        0.510376   -4.901761    1.713350
     37          1           0        1.068345   -6.176031    0.659300
     38          6           0        1.905160    0.059988    1.261700
     39          1           0        1.042330   -0.012841    1.925710
     40          6           0        2.893189   -1.944273    2.464300
     41          6           0        3.987808   -2.645694    2.952830
     42          6           0        5.268718   -2.114905    2.807570
     43          6           0        5.451320   -0.883265    2.194560
     44          6           0        4.348960   -0.189154    1.707440
     45          6           0        3.062340   -0.718693    1.818730
     46          1           0        1.892778   -2.342272    2.591790
     47          1           0        3.844947   -3.592394    3.457480
     48          1           0        6.125908   -2.653895    3.190410
     49          1           0        6.433090   -0.439146    2.096300
     50          8           0        2.191931    1.437408    1.085020
     51          8           0        4.552831    1.047966    1.151410
     52          5           0        3.485742    1.900237    0.937710
     53          6           0        3.744443    3.379877    0.561480
     54          6           0        2.684354    4.279517    0.369650
     55          6           0        5.054694    3.860745    0.412390
     56          6           0        2.921945    5.608057    0.041180
     57          1           0        1.664214    3.935168    0.490450
     58          6           0        5.296345    5.187845    0.080000
     59          1           0        5.888433    3.185825    0.561650
     60          6           0        4.229855    6.063166   -0.105920
     61          1           0        2.092106    6.290458   -0.096530
     62          1           0        6.313665    5.542744   -0.030140
     63          1           0        4.417516    7.099206   -0.360620
     64          6           0        2.629270   -0.335962   -1.595220
     65          6           0        3.683229   -1.256873   -1.648320
     66          6           0        2.658421    0.786577   -2.428040
     67          6           0        4.746049   -1.054394   -2.519770
     68          1           0        3.687818   -2.125003   -1.001200
     69          6           0        3.721791    0.980127   -3.303040
     70          1           0        1.864482    1.520828   -2.394960
     71          6           0        4.764330    0.061276   -3.351310
     72          1           0        5.559349   -1.768415   -2.549300
     73          1           0        3.736942    1.854437   -3.941210
     74          1           0        5.591550    0.215885   -4.032410
     75          6           0       -3.062890    0.026022   -1.149220
     76          1           0       -2.963020   -0.474378   -2.115160
     77          6           0       -4.350460   -0.364457   -0.475810
     78          8           0       -2.951499    1.419422   -1.383750
     79          6           0       -4.827471   -1.675916   -0.472680
     80          6           0       -5.103639    0.618504    0.169880
     81          5           0       -3.708768    2.350423   -0.699660
     82          6           0       -6.006401   -2.005975    0.182150
     83          1           0       -4.278992   -2.448437   -0.997440
     84          6           0       -6.286989    0.299345    0.826020
     85          8           0       -4.720138    1.936244    0.141150
     86          6           0       -3.420636    3.861493   -0.879360
     87          6           0       -6.732001   -1.014515    0.838960
     88          1           0       -6.364512   -3.027095    0.170060
     89          1           0       -6.845289    1.091706    1.306790
     90          6           0       -2.429806    4.313772   -1.765130
     91          6           0       -4.155736    4.819683   -0.163470
     92          1           0       -7.654521   -1.262694    1.347890
     93          6           0       -2.182365    5.670612   -1.930820
     94          1           0       -1.859537    3.592961   -2.338940
     95          6           0       -3.907685    6.177193   -0.323300
     96          1           0       -4.930536    4.493534    0.519430
     97          6           0       -2.920754    6.604032   -1.207680
     98          1           0       -1.421055    6.003631   -2.625690
     99          1           0       -4.485284    6.903504    0.235060
    100          1           0       -2.731163    7.662632   -1.337490
 ---------------------------------------------------------------------

 SCF Done:  E(RB3LYP) =  -2962.23540470     A.U. after   17 cycles

      1  P    Isotropic =   296.1451   Anisotropy =    55.7739

      2  C    Isotropic =    50.4838   Anisotropy =   175.9727

      3  C    Isotropic =    41.9875   Anisotropy =   184.7310

      4  C    Isotropic =    49.6563   Anisotropy =   189.4527

      5  C    Isotropic =    44.6000   Anisotropy =   199.7228

      6  C    Isotropic =    48.1647   Anisotropy =   192.9298

      7  C    Isotropic =    47.5012   Anisotropy =   194.6100

      8  H    Isotropic =    23.9574   Anisotropy =     6.9347

      9  H    Isotropic =    24.2066   Anisotropy =     6.3548

     10  H    Isotropic =    24.1266   Anisotropy =     3.4755

     11  H    Isotropic =    24.4012   Anisotropy =     5.7345

     12  H    Isotropic =    24.4161   Anisotropy =     7.8998

     13  C    Isotropic =   147.6771   Anisotropy =    37.5098

     14  P    Isotropic =   299.5254   Anisotropy =    59.6167

     15  H    Isotropic =    27.9264   Anisotropy =     5.0070

     16  H    Isotropic =    27.5521   Anisotropy =    10.7157

     17  Rh   Isotropic =  -327.6846   Anisotropy =   356.1835

     18  C    Isotropic =    84.2104   Anisotropy =   116.1838

     19  C    Isotropic =    76.3635   Anisotropy =   116.8563

     20  C    Isotropic =    75.4510   Anisotropy =   128.5270

     21  C    Isotropic =    81.0460   Anisotropy =   113.2790

     22  C    Isotropic =   154.1959   Anisotropy =    25.1383

     23  H    Isotropic =    26.7847   Anisotropy =     6.9142

     24  H    Isotropic =    25.8296   Anisotropy =     4.7388

     25  C    Isotropic =   146.3268   Anisotropy =    31.9737

     26  C    Isotropic =   154.1395   Anisotropy =    25.4391

     27  H    Isotropic =    27.1232   Anisotropy =     6.5085

     28  C    Isotropic =   147.6924   Anisotropy =    29.7392

     29  H    Isotropic =    26.4253   Anisotropy =     6.0411

     30  H    Isotropic =    29.6849   Anisotropy =    11.5461

     31  H    Isotropic =    29.6697   Anisotropy =     9.9006

     32  H    Isotropic =    29.0252   Anisotropy =    12.7320

     33  H    Isotropic =    29.0136   Anisotropy =     6.9035

     34  H    Isotropic =    29.8464   Anisotropy =     9.6130

     35  H    Isotropic =    29.9973   Anisotropy =    11.1874

     36  H    Isotropic =    29.0079   Anisotropy =     6.8357

     37  H    Isotropic =    29.0555   Anisotropy =    12.8441

     38  C    Isotropic =    99.6108   Anisotropy =    33.4897

     39  H    Isotropic =    27.0402   Anisotropy =     7.4795

     40  C    Isotropic =    54.6733   Anisotropy =   168.2969

     41  C    Isotropic =    56.2574   Anisotropy =   178.4437

     42  C    Isotropic =    46.9134   Anisotropy =   189.1020

     43  C    Isotropic =    59.0866   Anisotropy =   156.7238

     44  C    Isotropic =    25.7190   Anisotropy =   142.6503

     45  C    Isotropic =    60.7312   Anisotropy =   151.3965

     46  H    Isotropic =    24.8432   Anisotropy =     8.1588

     47  H    Isotropic =    24.6564   Anisotropy =     6.9413

     48  H    Isotropic =    24.3810   Anisotropy =     3.4966

     49  H    Isotropic =    24.8396   Anisotropy =     6.6023

     50  O    Isotropic =   213.9058   Anisotropy =   165.5198

     51  O    Isotropic =   159.0870   Anisotropy =   246.1989

     52  B    Isotropic =    76.3195   Anisotropy =    20.3789

     53  C    Isotropic =    51.8688   Anisotropy =   205.6479

     54  C    Isotropic =    45.4910   Anisotropy =   194.5110

     55  C    Isotropic =    43.1988   Anisotropy =   200.6775

     56  C    Isotropic =    51.6221   Anisotropy =   184.6525

     57  H    Isotropic =    24.0377   Anisotropy =     9.7963

     58  C    Isotropic =    50.6443   Anisotropy =   187.0868

     59  H    Isotropic =    24.0720   Anisotropy =    10.9125

     60  C    Isotropic =    44.9273   Anisotropy =   194.4819

     61  H    Isotropic =    24.4013   Anisotropy =     7.2735

     62  H    Isotropic =    24.3570   Anisotropy =     5.2998

     63  H    Isotropic =    24.1691   Anisotropy =     5.0230

     64  C    Isotropic =    51.6722   Anisotropy =   168.0177

     65  C    Isotropic =    46.7177   Anisotropy =   185.6180

     66  C    Isotropic =    47.8022   Anisotropy =   189.0461

     67  C    Isotropic =    49.5746   Anisotropy =   190.6377

     68  H    Isotropic =    25.6677   Anisotropy =     7.9943

     69  C    Isotropic =    48.1829   Anisotropy =   193.1912

     70  H    Isotropic =    24.4489   Anisotropy =     9.8637

     71  C    Isotropic =    45.4870   Anisotropy =   199.1849

     72  H    Isotropic =    24.4942   Anisotropy =     6.9356

     73  H    Isotropic =    24.3887   Anisotropy =     6.1381

     74  H    Isotropic =    24.1746   Anisotropy =     3.2960

     75  C    Isotropic =    97.1249   Anisotropy =    37.1005

     76  H    Isotropic =    25.7784   Anisotropy =     4.9976

     77  C    Isotropic =    61.3028   Anisotropy =   152.3576

     78  O    Isotropic =   211.4672   Anisotropy =   163.9679

     79  C    Isotropic =    56.4867   Anisotropy =   168.7302

     80  C    Isotropic =    26.5685   Anisotropy =   142.5576

     81  B    Isotropic =    75.5563   Anisotropy =    20.9870

     82  C    Isotropic =    55.5129   Anisotropy =   180.7443

     83  H    Isotropic =    25.0700   Anisotropy =     7.9144

     84  C    Isotropic =    58.7501   Anisotropy =   157.9252

     85  O    Isotropic =   157.9234   Anisotropy =   250.7084

     86  C    Isotropic =    51.4917   Anisotropy =   204.6811

     87  C    Isotropic =    46.9682   Anisotropy =   190.6826

     88  H    Isotropic =    24.7407   Anisotropy =     6.3293

     89  H    Isotropic =    24.8572   Anisotropy =     6.5631

     90  C    Isotropic =    44.8994   Anisotropy =   195.8439

     91  C    Isotropic =    42.5514   Anisotropy =   201.0903

     92  H    Isotropic =    24.4757   Anisotropy =     3.2084

     93  C    Isotropic =    50.9960   Anisotropy =   185.9630

     94  H    Isotropic =    23.4710   Anisotropy =    10.1394

     95  C    Isotropic =    49.9193   Anisotropy =   188.0079

     96  H    Isotropic =    23.4738   Anisotropy =    10.6393

     97  C    Isotropic =    44.2345   Anisotropy =   195.7531

     98  H    Isotropic =    24.0232   Anisotropy =     6.5989

     99  H    Isotropic =    24.0243   Anisotropy =     5.4161

    100  H    Isotropic =    23.9030   Anisotropy =     4.5822

 The electronic state is 1-A.
 Alpha  occ. eigenvalues --  -77.23573 -77.23414 -19.24774 -19.24486 -19.24396
 Alpha  occ. eigenvalues --  -19.24242 -10.36153 -10.35605 -10.33221 -10.33127
 Alpha  occ. eigenvalues --  -10.30154 -10.29702 -10.29694 -10.29568 -10.29249
 Alpha  occ. eigenvalues --  -10.29236 -10.29177 -10.28650 -10.28440 -10.28428
 Alpha  occ. eigenvalues --  -10.28409 -10.28253 -10.28194 -10.27802 -10.27785
 Alpha  occ. eigenvalues --  -10.27672 -10.27617 -10.27593 -10.27587 -10.27538
 Alpha  occ. eigenvalues --  -10.27498 -10.27460 -10.27370 -10.27316 -10.27256
 Alpha  occ. eigenvalues --  -10.26737 -10.26698 -10.26470 -10.26443 -10.26377
 Alpha  occ. eigenvalues --  -10.26373 -10.25175 -10.25013 -10.24939 -10.24812
 Alpha  occ. eigenvalues --  -10.24689 -10.24669 -10.24575 -10.24521 -10.24332
 Alpha  occ. eigenvalues --  -10.24183 -10.23791 -10.23406  -6.87857  -6.87579
 Alpha  occ. eigenvalues --   -6.69609  -6.69464  -4.85891  -4.85809  -4.85751
 Alpha  occ. eigenvalues --   -4.85659  -4.85505  -4.85363  -3.32117  -2.09029
 Alpha  occ. eigenvalues --   -2.08333  -2.05554  -1.17003  -1.16709  -1.13001
 Alpha  occ. eigenvalues --   -1.12671  -0.96577  -0.96311  -0.95707  -0.95635
 Alpha  occ. eigenvalues --   -0.94820  -0.92924  -0.92573  -0.89808  -0.89512
 Alpha  occ. eigenvalues --   -0.88330  -0.87929  -0.86826  -0.85978  -0.85337
 Alpha  occ. eigenvalues --   -0.85130  -0.84350  -0.84252  -0.84158  -0.82148
 Alpha  occ. eigenvalues --   -0.82003  -0.81805  -0.81672  -0.80666  -0.80022
 Alpha  occ. eigenvalues --   -0.78679  -0.78115  -0.73833  -0.72355  -0.72260
 Alpha  occ. eigenvalues --   -0.72005  -0.71243  -0.71127  -0.71100  -0.70903
 Alpha  occ. eigenvalues --   -0.70725  -0.68104  -0.67829  -0.67621  -0.67358
 Alpha  occ. eigenvalues --   -0.66983  -0.66571  -0.66275  -0.64383  -0.64144
 Alpha  occ. eigenvalues --   -0.62867  -0.62113  -0.61978  -0.61334  -0.61242
 Alpha  occ. eigenvalues --   -0.60631  -0.60502  -0.60352  -0.58623  -0.58359
 Alpha  occ. eigenvalues --   -0.57949  -0.57525  -0.56737  -0.56634  -0.56175
 Alpha  occ. eigenvalues --   -0.56089  -0.55803  -0.55683  -0.55456  -0.55346
 Alpha  occ. eigenvalues --   -0.55009  -0.54379  -0.53918  -0.53340  -0.52986
 Alpha  occ. eigenvalues --   -0.52942  -0.52900  -0.52771  -0.52724  -0.52625
 Alpha  occ. eigenvalues --   -0.52520  -0.52376  -0.52072  -0.51905  -0.51581
 Alpha  occ. eigenvalues --   -0.50792  -0.49682  -0.49557  -0.49505  -0.49237
 Alpha  occ. eigenvalues --   -0.49137  -0.48787  -0.48352  -0.48220  -0.47912
 Alpha  occ. eigenvalues --   -0.47697  -0.47614  -0.47168  -0.46875  -0.46836
 Alpha  occ. eigenvalues --   -0.46515  -0.46385  -0.46225  -0.46090  -0.45404
 Alpha  occ. eigenvalues --   -0.45167  -0.44953  -0.44743  -0.44673  -0.44153
 Alpha  occ. eigenvalues --   -0.43864  -0.43785  -0.43624  -0.43395  -0.42827
 Alpha  occ. eigenvalues --   -0.42327  -0.41874  -0.41620  -0.41084  -0.40868
 Alpha  occ. eigenvalues --   -0.40799  -0.40639  -0.40578  -0.40260  -0.38187
 Alpha  occ. eigenvalues --   -0.37313  -0.36302  -0.36059  -0.36013  -0.35817
 Alpha  occ. eigenvalues --   -0.35375  -0.35224  -0.34853  -0.34660  -0.34333
 Alpha  occ. eigenvalues --   -0.33405  -0.32997  -0.32946  -0.32636  -0.32294
 Alpha  occ. eigenvalues --   -0.32106  -0.31275
 Alpha virt. eigenvalues --   -0.16687  -0.15217  -0.13441  -0.12559  -0.12381
 Alpha virt. eigenvalues --   -0.12116  -0.11809  -0.11629  -0.11282  -0.10693
 Alpha virt. eigenvalues --   -0.09571  -0.09305  -0.09151  -0.08414  -0.08121

 Mulliken charges:
               1
     1  P    0.376499
     2  C   -0.205442
     3  C   -0.023649
     4  C   -0.098647
     5  C   -0.093587
     6  C   -0.095129
     7  C   -0.036966
     8  H    0.144027
     9  H    0.135730
    10  H    0.139728
    11  H    0.130505
    12  H    0.105173
    13  C   -0.573152
    14  P    0.284793
    15  H    0.220232
    16  H    0.231371
    17  Rh  -0.558504
    18  C    0.004809
    19  C   -0.107168
    20  C   -0.047215
    21  C   -0.107801
    22  C   -0.357740
    23  H    0.188954
    24  H    0.166070
    25  C   -0.234497
    26  C   -0.353188
    27  H    0.210286
    28  C   -0.224876
    29  H    0.238628
    30  H    0.168987
    31  H    0.170126
    32  H    0.171260
    33  H    0.136434
    34  H    0.169539
    35  H    0.172114
    36  H    0.130277
    37  H    0.172294
    38  C   -0.141620
    39  H    0.231020
    40  C   -0.213635
    41  C   -0.087846
    42  C   -0.086494
    43  C   -0.170616
    44  C    0.236963
    45  C   -0.148477
    46  H    0.137878
    47  H    0.124961
    48  H    0.132870
    49  H    0.143887
    50  O   -0.274647
    51  O   -0.210411
    52  B    0.432453
    53  C   -0.224642
    54  C   -0.076838
    55  C   -0.075271
    56  C   -0.128123
    57  H    0.133266
    58  C   -0.112683
    59  H    0.130482
    60  C   -0.072585
    61  H    0.119696
    62  H    0.123709
    63  H    0.126992
    64  C   -0.085382
    65  C   -0.156212
    66  C   -0.059586
    67  C   -0.085528
    68  H    0.175360
    69  C   -0.074749
    70  H    0.146227
    71  C   -0.091094
    72  H    0.130020
    73  H    0.133151
    74  H    0.137198
    75  C   -0.217223
    76  H    0.216656
    77  C   -0.085309
    78  O   -0.267568
    79  C   -0.153754
    80  C    0.205532
    81  B    0.415316
    82  C   -0.111450
    83  H    0.138337
    84  C   -0.176980
    85  O   -0.203003
    86  C   -0.221048
    87  C   -0.076744
    88  H    0.122281
    89  H    0.143340
    90  C   -0.085607
    91  C   -0.079008
    92  H    0.132924
    93  C   -0.112312
    94  H    0.123558
    95  C   -0.106488
    96  H    0.133389
    97  C   -0.078445
    98  H    0.119296
    99  H    0.125656
   100  H    0.128686
 Sum of Mulliken charges =   1.00000

 Dipole moment (field-independent basis, Debye):
    X=             -0.0456    Y=             -5.7854    Z=             -0.3661  Tot=              5.7971
 Quadrupole moment (field-independent basis, Debye-Ang):
   XX=           -280.5268   YY=           -269.7283   ZZ=           -320.1648
   XY=              1.8404   XZ=            -18.2094   YZ=             -2.3011

 Summary of Natural Population Analysis:

                                       Natural Population
                Natural  -----------------------------------------------
    Atom  No    Charge         Core      Valence    Rydberg      Total
 -----------------------------------------------------------------------
      P    1    1.04353      9.99667     3.91203    0.04778    13.95647
      C    2   -0.35814      1.99899     4.33573    0.02341     6.35814
      C    3   -0.17995      1.99909     4.16555    0.01531     6.17995
      C    4   -0.19445      1.99919     4.18074    0.01452     6.19445
      C    5   -0.17250      1.99920     4.15884    0.01445     6.17250
      C    6   -0.18730      1.99919     4.17352    0.01459     6.18730
      C    7   -0.19355      1.99908     4.17857    0.01590     6.19355
      H    8    0.21739      0.00000     0.78018    0.00243     0.78261
      H    9    0.22517      0.00000     0.77358    0.00125     0.77483
      H   10    0.22335      0.00000     0.77548    0.00117     0.77665
      H   11    0.22181      0.00000     0.77695    0.00123     0.77819
      H   12    0.21590      0.00000     0.78216    0.00194     0.78410
      C   13   -0.98083      1.99942     4.96464    0.01676     6.98083
      P   14    1.05958      9.99664     3.89631    0.04747    13.94042
      H   15    0.26902      0.00000     0.72934    0.00165     0.73098
      H   16    0.26576      0.00000     0.73193    0.00231     0.73424
     Rh   17   -0.36597     35.98529     9.35158    0.02910    45.36597
      C   18   -0.18665      1.99905     4.16816    0.01944     6.18665
      C   19   -0.14718      1.99906     4.12828    0.01984     6.14718
      C   20   -0.15974      1.99906     4.14140    0.01928     6.15974
      C   21   -0.17009      1.99906     4.15103    0.01999     6.17009
      C   22   -0.42248      1.99936     4.41134    0.01178     6.42248
      H   23    0.22579      0.00000     0.77204    0.00217     0.77421
      H   24    0.21472      0.00000     0.78303    0.00225     0.78528
      C   25   -0.41840      1.99935     4.40635    0.01269     6.41840
      C   26   -0.42452      1.99936     4.41330    0.01187     6.42452
      H   27    0.23041      0.00000     0.76722    0.00237     0.76959
      C   28   -0.41832      1.99935     4.40631    0.01266     6.41832
      H   29    0.23212      0.00000     0.76545    0.00244     0.76788
      H   30    0.22827      0.00000     0.77024    0.00150     0.77173
      H   31    0.21539      0.00000     0.78261    0.00200     0.78461
      H   32    0.23354      0.00000     0.76456    0.00191     0.76646
      H   33    0.21782      0.00000     0.78062    0.00156     0.78218
      H   34    0.21426      0.00000     0.78376    0.00198     0.78574
      H   35    0.23041      0.00000     0.76815    0.00144     0.76959
      H   36    0.21440      0.00000     0.78399    0.00161     0.78560
      H   37    0.23390      0.00000     0.76419    0.00191     0.76610
      C   38   -0.11860      1.99914     4.09267    0.02679     6.11860
      H   39    0.22170      0.00000     0.77507    0.00323     0.77830
      C   40   -0.18830      1.99913     4.17429    0.01487     6.18830
      C   41   -0.21764      1.99920     4.20343    0.01500     6.21764
      C   42   -0.17745      1.99922     4.16353    0.01470     6.17745
      C   43   -0.22499      1.99911     4.21103    0.01485     6.22499
      C   44    0.29039      1.99865     3.68869    0.02228     5.70961
      C   45   -0.14419      1.99895     4.12851    0.01673     6.14419
      H   46    0.21302      0.00000     0.78491    0.00207     0.78698
      H   47    0.21872      0.00000     0.78007    0.00120     0.78128
      H   48    0.22203      0.00000     0.77687    0.00110     0.77797
      H   49    0.23232      0.00000     0.76620    0.00148     0.76768
      O   50   -0.67900      1.99970     6.66716    0.01214     8.67900
      O   51   -0.64056      1.99969     6.63079    0.01008     8.64056
      B   52    1.10638      1.99897     1.86366    0.03099     3.89362
      C   53   -0.41253      1.99896     4.39696    0.01661     6.41253
      C   54   -0.15391      1.99918     4.14012    0.01461     6.15391
      C   55   -0.14488      1.99918     4.13131    0.01439     6.14488
      C   56   -0.21457      1.99920     4.20018    0.01519     6.21457
      H   57    0.20670      0.00000     0.79172    0.00157     0.79330
      C   58   -0.21037      1.99920     4.19615    0.01502     6.21037
      H   59    0.21721      0.00000     0.78129    0.00149     0.78279
      C   60   -0.17719      1.99921     4.16297    0.01501     6.17719
      H   61    0.21262      0.00000     0.78602    0.00136     0.78738
      H   62    0.21528      0.00000     0.78343    0.00128     0.78472
      H   63    0.21452      0.00000     0.78427    0.00120     0.78548
      C   64   -0.35437      1.99900     4.33300    0.02237     6.35437
      C   65   -0.19366      1.99909     4.17934    0.01523     6.19366
      C   66   -0.18722      1.99909     4.17283    0.01530     6.18722
      C   67   -0.19074      1.99919     4.17698    0.01457     6.19074
      H   68    0.21604      0.00000     0.78180    0.00215     0.78396
      C   69   -0.18708      1.99919     4.17332    0.01457     6.18708
      H   70    0.21458      0.00000     0.78320    0.00222     0.78542
      C   71   -0.17472      1.99920     4.16100    0.01452     6.17472
      H   72    0.22230      0.00000     0.77646    0.00124     0.77770
      H   73    0.22382      0.00000     0.77494    0.00124     0.77618
      H   74    0.22302      0.00000     0.77580    0.00118     0.77698
      C   75   -0.11085      1.99915     4.08612    0.02558     6.11085
      H   76    0.21006      0.00000     0.78699    0.00295     0.78994
      C   77   -0.14169      1.99895     4.12602    0.01672     6.14169
      O   78   -0.67574      1.99970     6.66422    0.01182     8.67574
      C   79   -0.18601      1.99913     4.17216    0.01473     6.18601
      C   80    0.28876      1.99865     3.69011    0.02248     5.71124
      B   81    1.09962      1.99897     1.87052    0.03089     3.90038
      C   82   -0.21144      1.99921     4.19714    0.01510     6.21144
      H   83    0.20279      0.00000     0.79508    0.00213     0.79721
      C   84   -0.22107      1.99911     4.20715    0.01481     6.22107
      O   85   -0.63923      1.99969     6.62960    0.00995     8.63923
      C   86   -0.41469      1.99896     4.39910    0.01663     6.41469
      C   87   -0.17460      1.99922     4.16075    0.01463     6.17460
      H   88    0.21944      0.00000     0.77936    0.00120     0.78056
      H   89    0.23218      0.00000     0.76634    0.00148     0.76782
      C   90   -0.15550      1.99918     4.14158    0.01473     6.15550
      C   91   -0.14600      1.99918     4.13238    0.01444     6.14600
      H   92    0.22227      0.00000     0.77664    0.00110     0.77773
      C   93   -0.21433      1.99920     4.19992    0.01521     6.21433
      H   94    0.20834      0.00000     0.79007    0.00159     0.79166
      C   95   -0.20957      1.99920     4.19535    0.01502     6.20957
      H   96    0.21794      0.00000     0.78057    0.00149     0.78206
      C   97   -0.17616      1.99921     4.16192    0.01503     6.17616
      H   98    0.21286      0.00000     0.78582    0.00132     0.78714
      H   99    0.21622      0.00000     0.78251    0.00127     0.78378
      H  100    0.21523      0.00000     0.78357    0.00120     0.78477
 =======================================================================
   * Total *    1.00000    161.93457   278.99015    1.07528   442.00000

 Normal termination of Gaussian 16 at Wed Jan 22 02:34:34 2025.
