 Gaussian 16, Revision B.01,
 Gaussian 16:  ES64L-G16RevB.01 20-Dec-2017

 ------------------------------------------
 # nmr=giao b3lyp/genecp pop=nbo scfcyc=200
 ------------------------------------------

 ---------
 MB-28_SPE
 ---------
 Symbolic Z-matrix:
 Charge =  1 Multiplicity = 1

                         Standard orientation:
 ---------------------------------------------------------------------
 Center     Atomic      Atomic             Coordinates (Angstroms)
 Number     Number       Type             X           Y           Z
 ---------------------------------------------------------------------
      1         15           0        0.941159   -0.450132   -0.194729
      2         15           0       -1.805091   -0.317348   -0.691619
      3          6           0       -0.395792   -1.510020   -0.979509
      4          6           0        3.750345   -3.396326   -0.317109
      5          6           0        4.842217   -1.761687   -2.704889
      6          6           0        2.855027   -1.757674    3.993171
      7          6           0        3.831360    0.493884    2.112831
      8          6           0       -4.425265   -3.015854    2.300651
      9          6           0       -3.054396   -3.993056   -0.298489
     10          1           0       -0.511864   -2.514949   -0.574629
     11          1           0       -0.217373   -1.582390   -2.052949
     12          1           0        4.368234   -4.221726   -0.679999
     13          1           0        4.334396   -2.863076    0.436131
     14          1           0        2.881734   -3.840164    0.173591
     15          1           0        5.365226   -2.637988   -3.095549
     16          1           0        4.609258   -1.113157   -3.552669
     17          1           0        5.538418   -1.226028   -2.055339
     18          1           0        3.398318   -1.338275    4.843451
     19          1           0        2.000186   -2.310053    4.390521
     20          1           0        3.516376   -2.474035    3.500431
     21          1           0        4.403551    0.937614    2.931411
     22          1           0        4.497779   -0.199137    1.594361
     23          1           0        3.578382    1.301775    1.422781
     24          1           0       -4.934193   -2.194913    2.811171
     25          1           0       -5.097386   -3.877313    2.314421
     26          1           0       -3.541595   -3.278835    2.886901
     27          1           0       -3.704777   -4.870805   -0.329729
     28          1           0       -2.758346   -3.776216   -1.327139
     29          1           0       -2.160036   -4.276147    0.261751
     30         45           0       -0.391818    1.517410   -0.295669
     31          6           0       -1.681786    3.172272   -1.183899
     32          6           0       -1.923016    3.094303    0.172741
     33          6           0        0.982064    3.194518    0.445601
     34          6           0        1.214554    2.982088   -0.896149
     35          6           0       -0.817044    4.214901   -1.868369
     36          1           0       -2.367327    2.642803   -1.835879
     37          1           0       -2.796077    2.531544    0.489311
     38          6           0       -1.326205    3.966222    1.249551
     39          6           0        0.160666    4.325270    1.035311
     40          1           0        1.642003    2.689417    1.140991
     41          6           0        0.651665    3.777309   -2.048469
     42          1           0        2.062283    2.357817   -1.158089
     43          1           0       -1.238814    4.423062   -2.853069
     44          1           0       -0.869703    5.153391   -1.317099
     45          1           0       -1.917443    4.884803    1.351941
     46          1           0       -1.432575    3.438072    2.199661
     47          1           0        0.251207    5.211439    0.407671
     48          1           0        0.590456    4.598429    2.000471
     49          1           0        0.733144    3.162089   -2.947249
     50          1           0        1.281366    4.657278   -2.230769
     51          6           0        2.477859   -0.618734   -1.208399
     52          1           0        3.248100   -0.051935   -0.676659
     53          1           0        2.281520   -0.051103   -2.123849
     54          6           0        1.270488   -1.256272    1.435921
     55          1           0        1.705966   -2.237753    1.234301
     56          1           0        0.289418   -1.438871    1.884901
     57          6           0       -2.852922   -0.985956    0.675731
     58          1           0       -3.502771   -0.160005    0.984121
     59          1           0       -2.172352   -1.137247    1.519041
     60          6           0       -5.543963   -2.134242   -0.444519
     61          1           0       -6.061002   -1.275442   -0.009589
     62          1           0       -5.352203   -1.914363   -1.495949
     63          1           0       -6.235805   -2.979601   -0.411229
     64          6           0        1.183991    0.836308    3.718131
     65          1           0        0.719852    1.549669    3.034721
     66          1           0        0.382970    0.310529    4.243691
     67          1           0        1.747542    1.401777    4.463981
     68          6           0        2.122025   -3.218233   -2.945839
     69          1           0        1.244805   -3.620632   -2.435749
     70          1           0        1.780366   -2.586843   -3.769749
     71          1           0        2.654064   -4.064534   -3.387609
     72         14           0        2.308359   -0.386583    2.814071
     73         14           0        3.281326   -2.285635   -1.775789
     74         14           0       -3.975374   -2.557075    0.523061
     75          6           0       -2.839691   -0.351866   -2.221229
     76          1           0       -3.165672   -1.363986   -2.459469
     77          1           0       -3.717960    0.280025   -2.085229
     78          1           0       -2.254300    0.041883   -3.051469
 ---------------------------------------------------------------------

 SCF Done:  E(RB3LYP) =  -2530.65903740     A.U. after   16 cycles

      1  P    Isotropic =   331.7518   Anisotropy =    77.2381

      2  P    Isotropic =   330.2285   Anisotropy =    69.5718

      3  C    Isotropic =   130.7480   Anisotropy =    49.6907

      4  C    Isotropic =   182.3629   Anisotropy =     5.6971

      5  C    Isotropic =   182.3329   Anisotropy =    15.2358

      6  C    Isotropic =   183.2061   Anisotropy =    12.9427

      7  C    Isotropic =   184.0037   Anisotropy =     3.0808

      8  C    Isotropic =   182.5827   Anisotropy =    13.7531

      9  C    Isotropic =   184.0021   Anisotropy =     4.3051

     10  H    Isotropic =    29.0696   Anisotropy =     8.4292

     11  H    Isotropic =    28.7401   Anisotropy =     6.6529

     12  H    Isotropic =    31.4833   Anisotropy =    11.7733

     13  H    Isotropic =    31.7798   Anisotropy =     7.6623

     14  H    Isotropic =    31.8731   Anisotropy =     6.1769

     15  H    Isotropic =    31.6777   Anisotropy =    11.6944

     16  H    Isotropic =    31.7833   Anisotropy =     8.8525

     17  H    Isotropic =    31.7859   Anisotropy =     8.3695

     18  H    Isotropic =    31.5845   Anisotropy =    11.5679

     19  H    Isotropic =    31.7858   Anisotropy =     9.0148

     20  H    Isotropic =    31.8095   Anisotropy =     8.7708

     21  H    Isotropic =    31.5847   Anisotropy =    11.5692

     22  H    Isotropic =    31.8949   Anisotropy =     8.2750

     23  H    Isotropic =    32.2426   Anisotropy =     7.5287

     24  H    Isotropic =    31.7062   Anisotropy =     8.9200

     25  H    Isotropic =    31.6128   Anisotropy =    11.6258

     26  H    Isotropic =    31.8564   Anisotropy =     8.0827

     27  H    Isotropic =    31.4919   Anisotropy =    11.8253

     28  H    Isotropic =    31.9194   Anisotropy =     6.4076

     29  H    Isotropic =    31.8861   Anisotropy =     7.4146

     30  Rh   Isotropic =  -320.1341   Anisotropy =   339.9771

     31  C    Isotropic =    79.0438   Anisotropy =   120.3739

     32  C    Isotropic =    79.5804   Anisotropy =   112.0183

     33  C    Isotropic =    80.9158   Anisotropy =   117.1927

     34  C    Isotropic =    73.8370   Anisotropy =   119.5112

     35  C    Isotropic =   153.8237   Anisotropy =    25.1403

     36  H    Isotropic =    27.2510   Anisotropy =     6.7679

     37  H    Isotropic =    26.8813   Anisotropy =     4.9602

     38  C    Isotropic =   147.5931   Anisotropy =    28.3451

     39  C    Isotropic =   154.2561   Anisotropy =    23.8773

     40  H    Isotropic =    27.2638   Anisotropy =     6.3528

     41  C    Isotropic =   147.6219   Anisotropy =    30.1675

     42  H    Isotropic =    26.5637   Anisotropy =     2.9840

     43  H    Isotropic =    29.8655   Anisotropy =    11.6069

     44  H    Isotropic =    29.7673   Anisotropy =     9.3891

     45  H    Isotropic =    29.1312   Anisotropy =    12.6457

     46  H    Isotropic =    29.2065   Anisotropy =     7.0243

     47  H    Isotropic =    29.8261   Anisotropy =     9.6808

     48  H    Isotropic =    29.8793   Anisotropy =    10.4877

     49  H    Isotropic =    29.1538   Anisotropy =     7.4483

     50  H    Isotropic =    29.1446   Anisotropy =    12.3816

     51  C    Isotropic =   162.5458   Anisotropy =    27.0271

     52  H    Isotropic =    31.0694   Anisotropy =     5.0899

     53  H    Isotropic =    31.0759   Anisotropy =     5.5733

     54  C    Isotropic =   159.2089   Anisotropy =    24.4133

     55  H    Isotropic =    30.4027   Anisotropy =     7.7983

     56  H    Isotropic =    31.1838   Anisotropy =     5.6779

     57  C    Isotropic =   162.0895   Anisotropy =    29.6316

     58  H    Isotropic =    31.0033   Anisotropy =     5.3664

     59  H    Isotropic =    31.0410   Anisotropy =     5.6193

     60  C    Isotropic =   182.5788   Anisotropy =    11.9518

     61  H    Isotropic =    31.7946   Anisotropy =     8.7410

     62  H    Isotropic =    31.8788   Anisotropy =     6.8141

     63  H    Isotropic =    31.5859   Anisotropy =    11.7781

     64  C    Isotropic =   184.3799   Anisotropy =     8.3142

     65  H    Isotropic =    31.2406   Anisotropy =    11.5346

     66  H    Isotropic =    31.6977   Anisotropy =     8.5753

     67  H    Isotropic =    31.5834   Anisotropy =    10.9921

     68  C    Isotropic =   182.7974   Anisotropy =     6.8669

     69  H    Isotropic =    31.9603   Anisotropy =     7.6441

     70  H    Isotropic =    31.8097   Anisotropy =     7.6805

     71  H    Isotropic =    31.5322   Anisotropy =    11.6468

     72  Si   Isotropic =   344.1577   Anisotropy =     9.2152

     73  Si   Isotropic =   340.8141   Anisotropy =     3.8112

     74  Si   Isotropic =   341.0814   Anisotropy =     5.7817

     75  C    Isotropic =   166.0821   Anisotropy =    24.3854

     76  H    Isotropic =    30.2903   Anisotropy =     8.7903

     77  H    Isotropic =    30.7357   Anisotropy =     8.1057

     78  H    Isotropic =    30.6868   Anisotropy =     8.0002

 The electronic state is 1-A.
 Alpha  occ. eigenvalues --  -77.23789 -77.23630 -66.22995 -66.22929 -66.22869
 Alpha  occ. eigenvalues --  -10.30053 -10.29241 -10.29155 -10.29112 -10.29091
 Alpha  occ. eigenvalues --  -10.28785 -10.27999 -10.27708 -10.27651 -10.27643
 Alpha  occ. eigenvalues --  -10.27563 -10.27416 -10.27343 -10.24543 -10.24491
 Alpha  occ. eigenvalues --  -10.24298 -10.24261 -10.24032 -10.24023 -10.23780
 Alpha  occ. eigenvalues --  -10.23640 -10.23616  -6.69763  -6.69524  -5.36846
 Alpha  occ. eigenvalues --   -5.36772  -5.36720  -4.86059  -4.85978  -4.85830
 Alpha  occ. eigenvalues --   -4.85740  -4.85658  -4.85426  -3.72807  -3.72729
 Alpha  occ. eigenvalues --   -3.72683  -3.72675  -3.72668  -3.72611  -3.72596
 Alpha  occ. eigenvalues --   -3.72560  -3.72543  -3.31459  -2.08323  -2.07668
 Alpha  occ. eigenvalues --   -2.04948  -0.94547  -0.90211  -0.89275  -0.88106
 Alpha  occ. eigenvalues --   -0.86471  -0.82161  -0.82032  -0.81812  -0.80451
 Alpha  occ. eigenvalues --   -0.79980  -0.79397  -0.78909  -0.77928  -0.77562
 Alpha  occ. eigenvalues --   -0.77524  -0.77405  -0.77046  -0.76990  -0.76925
 Alpha  occ. eigenvalues --   -0.70660  -0.66704  -0.66233  -0.66004  -0.62627
 Alpha  occ. eigenvalues --   -0.60233  -0.57563  -0.57308  -0.56673  -0.56529
 Alpha  occ. eigenvalues --   -0.56322  -0.55925  -0.55708  -0.54698  -0.54189
 Alpha  occ. eigenvalues --   -0.53748  -0.53415  -0.52756  -0.52672  -0.52227
 Alpha  occ. eigenvalues --   -0.51797  -0.51106  -0.50927  -0.50840  -0.50596
 Alpha  occ. eigenvalues --   -0.50447  -0.50319  -0.50034  -0.49763  -0.49695
 Alpha  occ. eigenvalues --   -0.48671  -0.48486  -0.48368  -0.48214  -0.48142
 Alpha  occ. eigenvalues --   -0.48025  -0.47970  -0.47841  -0.47679  -0.47596
 Alpha  occ. eigenvalues --   -0.47557  -0.46772  -0.46366  -0.46097  -0.46058
 Alpha  occ. eigenvalues --   -0.44391  -0.44022  -0.43546  -0.43265  -0.43133
 Alpha  occ. eigenvalues --   -0.40529  -0.40318  -0.40057  -0.39983  -0.39900
 Alpha  occ. eigenvalues --   -0.39808  -0.39677  -0.39522  -0.39494  -0.36400
 Alpha  occ. eigenvalues --   -0.36127  -0.34776  -0.34459  -0.33613  -0.30652
 Alpha virt. eigenvalues --   -0.16113  -0.13711  -0.09756  -0.09179  -0.08600
 Alpha virt. eigenvalues --   -0.08293  -0.07488  -0.07047  -0.06680  -0.06043
 Alpha virt. eigenvalues --   -0.05637  -0.05311  -0.05165  -0.04800  -0.04535

 Mulliken charges:
               1
     1  P    0.406158
     2  P    0.380033
     3  C   -0.577041
     4  C   -0.562367
     5  C   -0.529725
     6  C   -0.509559
     7  C   -0.593255
     8  C   -0.515630
     9  C   -0.561058
    10  H    0.215026
    11  H    0.207398
    12  H    0.159726
    13  H    0.137007
    14  H    0.133544
    15  H    0.147622
    16  H    0.134160
    17  H    0.137433
    18  H    0.148633
    19  H    0.135360
    20  H    0.140084
    21  H    0.162450
    22  H    0.142165
    23  H    0.135703
    24  H    0.139000
    25  H    0.148814
    26  H    0.131942
    27  H    0.160795
    28  H    0.131017
    29  H    0.130512
    30  Rh  -0.462696
    31  C   -0.043544
    32  C   -0.086841
    33  C   -0.041999
    34  C   -0.104450
    35  C   -0.345151
    36  H    0.182288
    37  H    0.169334
    38  C   -0.209653
    39  C   -0.359912
    40  H    0.177177
    41  C   -0.220432
    42  H    0.186182
    43  H    0.167387
    44  H    0.167444
    45  H    0.170172
    46  H    0.133086
    47  H    0.167761
    48  H    0.168506
    49  H    0.127045
    50  H    0.171174
    51  C   -0.552549
    52  H    0.165762
    53  H    0.159139
    54  C   -0.511950
    55  H    0.163383
    56  H    0.134754
    57  C   -0.503578
    58  H    0.158371
    59  H    0.139162
    60  C   -0.546737
    61  H    0.137878
    62  H    0.132861
    63  H    0.152263
    64  C   -0.566142
    65  H    0.124619
    66  H    0.141122
    67  H    0.154717
    68  C   -0.562931
    69  H    0.132832
    70  H    0.133315
    71  H    0.157276
    72  Si   0.662745
    73  Si   0.679620
    74  Si   0.647177
    75  C   -0.479225
    76  H    0.179071
    77  H    0.169327
    78  H    0.168895
 Sum of Mulliken charges =   1.00000

 Dipole moment (field-independent basis, Debye):
    X=             -1.1818    Y=             -0.0684    Z=             -1.1114  Tot=              1.6238
 Quadrupole moment (field-independent basis, Debye-Ang):
   XX=           -187.4032   YY=           -191.0314   ZZ=           -207.0971
   XY=              0.1897   XZ=              1.2080   YZ=              0.0463

 Summary of Natural Population Analysis:

                                       Natural Population
                Natural  -----------------------------------------------
    Atom  No    Charge         Core      Valence    Rydberg      Total
 -----------------------------------------------------------------------
      P    1    1.14610      9.99690     3.80575    0.05125    13.85390
      P    2    1.13939      9.99681     3.81302    0.05078    13.86061
      C    3   -0.99647      1.99945     4.97981    0.01720     6.99647
      C    4   -1.08946      1.99945     5.08142    0.00859     7.08946
      C    5   -1.08000      1.99945     5.07270    0.00785     7.08000
      C    6   -1.08094      1.99945     5.07365    0.00784     7.08094
      C    7   -1.08942      1.99945     5.08138    0.00859     7.08942
      C    8   -1.08014      1.99945     5.07285    0.00784     7.08014
      C    9   -1.09064      1.99945     5.08250    0.00868     7.09064
      H   10    0.25199      0.00000     0.74580    0.00221     0.74801
      H   11    0.26015      0.00000     0.73827    0.00158     0.73985
      H   12    0.24583      0.00000     0.75327    0.00091     0.75417
      H   13    0.23161      0.00000     0.76724    0.00115     0.76839
      H   14    0.22564      0.00000     0.77318    0.00119     0.77436
      H   15    0.24132      0.00000     0.75779    0.00089     0.75868
      H   16    0.23384      0.00000     0.76523    0.00093     0.76616
      H   17    0.23442      0.00000     0.76465    0.00093     0.76558
      H   18    0.24144      0.00000     0.75768    0.00088     0.75856
      H   19    0.23413      0.00000     0.76494    0.00093     0.76587
      H   20    0.23416      0.00000     0.76483    0.00101     0.76584
      H   21    0.24574      0.00000     0.75335    0.00090     0.75426
      H   22    0.23166      0.00000     0.76721    0.00113     0.76834
      H   23    0.22304      0.00000     0.77579    0.00117     0.77696
      H   24    0.23583      0.00000     0.76326    0.00091     0.76417
      H   25    0.24214      0.00000     0.75697    0.00089     0.75786
      H   26    0.23125      0.00000     0.76782    0.00094     0.76875
      H   27    0.24652      0.00000     0.75258    0.00090     0.75348
      H   28    0.22576      0.00000     0.77309    0.00115     0.77424
      H   29    0.22878      0.00000     0.77013    0.00109     0.77122
     Rh   30   -0.41065     35.98591     9.39855    0.02620    45.41065
      C   31   -0.16480      1.99906     4.14587    0.01988     6.16480
      C   32   -0.16753      1.99907     4.14808    0.02038     6.16753
      C   33   -0.18700      1.99905     4.16777    0.02018     6.18700
      C   34   -0.15214      1.99906     4.13271    0.02037     6.15214
      C   35   -0.42445      1.99936     4.41302    0.01207     6.42445
      H   36    0.21943      0.00000     0.77865    0.00192     0.78057
      H   37    0.22080      0.00000     0.77724    0.00196     0.77920
      C   38   -0.42053      1.99936     4.40870    0.01247     6.42053
      C   39   -0.42446      1.99936     4.41303    0.01206     6.42446
      H   40    0.22305      0.00000     0.77476    0.00219     0.77695
      C   41   -0.42026      1.99936     4.40838    0.01251     6.42026
      H   42    0.22192      0.00000     0.77612    0.00195     0.77808
      H   43    0.22779      0.00000     0.77081    0.00140     0.77221
      H   44    0.21475      0.00000     0.78331    0.00194     0.78525
      H   45    0.23322      0.00000     0.76497    0.00181     0.76678
      H   46    0.21887      0.00000     0.77959    0.00154     0.78113
      H   47    0.21421      0.00000     0.78383    0.00196     0.78579
      H   48    0.22850      0.00000     0.77005    0.00144     0.77150
      H   49    0.21699      0.00000     0.78149    0.00152     0.78301
      H   50    0.23292      0.00000     0.76526    0.00182     0.76708
      C   51   -1.16209      1.99937     5.14844    0.01428     7.16209
      H   52    0.25931      0.00000     0.73921    0.00148     0.74069
      H   53    0.25394      0.00000     0.74469    0.00137     0.74606
      C   54   -1.15632      1.99938     5.14132    0.01563     7.15632
      H   55    0.25281      0.00000     0.74508    0.00211     0.74719
      H   56    0.24779      0.00000     0.75061    0.00160     0.75221
      C   57   -1.15206      1.99938     5.13854    0.01414     7.15206
      H   58    0.25494      0.00000     0.74376    0.00130     0.74506
      H   59    0.25125      0.00000     0.74712    0.00163     0.74875
      C   60   -1.08634      1.99945     5.07873    0.00816     7.08634
      H   61    0.23468      0.00000     0.76439    0.00093     0.76532
      H   62    0.22820      0.00000     0.77070    0.00111     0.77180
      H   63    0.24397      0.00000     0.75515    0.00088     0.75603
      C   64   -1.08170      1.99945     5.07396    0.00829     7.08170
      H   65    0.22824      0.00000     0.77047    0.00129     0.77176
      H   66    0.23376      0.00000     0.76526    0.00099     0.76624
      H   67    0.24034      0.00000     0.75876    0.00090     0.75966
      C   68   -1.08897      1.99945     5.08103    0.00849     7.08897
      H   69    0.22593      0.00000     0.77288    0.00119     0.77407
      H   70    0.23068      0.00000     0.76834    0.00098     0.76932
      H   71    0.24521      0.00000     0.75390    0.00089     0.75479
     Si   72    1.62261      9.99833     2.35399    0.02507    12.37739
     Si   73    1.61853      9.99835     2.35771    0.02540    12.38147
     Si   74    1.61433      9.99837     2.36186    0.02544    12.38567
      C   75   -0.90566      1.99943     4.89661    0.00962     6.90566
      H   76    0.23696      0.00000     0.76123    0.00181     0.76304
      H   77    0.24244      0.00000     0.75640    0.00116     0.75756
      H   78    0.24293      0.00000     0.75590    0.00118     0.75707
 =======================================================================
   * Total *    1.00000    129.96041   167.49438    0.54521   298.00000

 Normal termination of Gaussian 16 at Tue Jan 21 10:40:46 2025.
