 Gaussian 16, Revision B.01,
 Gaussian 16:  ES64L-G16RevB.01 20-Dec-2017

 ------------------------------------------
 # nmr=giao b3lyp/genecp pop=nbo scfcyc=200
 ------------------------------------------

 ---------
 MB-26_SPE
 ---------
 Symbolic Z-matrix:
 Charge =  1 Multiplicity = 1

                         Standard orientation:
 ---------------------------------------------------------------------
 Center     Atomic      Atomic             Coordinates (Angstroms)
 Number     Number       Type             X           Y           Z
 ---------------------------------------------------------------------
      1         15           0        1.462650   -0.918830    0.062730
      2         15           0       -1.462970   -0.918481   -0.062600
      3          6           0       -0.000309   -2.113420    0.000330
      4          1           0       -0.028279   -2.760970    0.872860
      5          1           0        0.027481   -2.761630   -0.871700
      6          6           0        2.551490   -1.289350   -1.515210
      7          6           0        2.020780   -0.440530   -2.682130
      8          1           0        2.606150   -0.672750   -3.576130
      9          1           0        2.122570    0.625560   -2.486670
     10          1           0        0.980520   -0.643870   -2.911490
     11          6           0        4.017700   -0.879840   -1.293420
     12          1           0        4.537230   -0.954930   -2.252020
     13          1           0        4.541190   -1.529230   -0.595490
     14          1           0        4.119160    0.152040   -0.955150
     15          6           0        2.502941   -2.773870   -1.914330
     16          1           0        1.518211   -3.080480   -2.267530
     17          1           0        2.801161   -3.444030   -1.109990
     18          1           0        3.195321   -2.932350   -2.745460
     19          6           0        2.451600   -1.412480    1.653790
     20          6           0        3.592500   -0.411880    1.919300
     21          1           0        3.234080    0.617480    1.950490
     22          1           0        4.398060   -0.470070    1.194900
     23          1           0        4.023000   -0.632200    2.899490
     24          6           0        3.006061   -2.843440    1.577570
     25          1           0        3.458481   -3.098230    2.539950
     26          1           0        3.779041   -2.957580    0.820200
     27          1           0        2.225181   -3.581770    1.384780
     28          6           0        1.494770   -1.322620    2.851380
     29          1           0        2.055931   -1.543210    3.762710
     30          1           0        0.681521   -2.045440    2.799010
     31          1           0        1.074180   -0.322460    2.957530
     32          6           0       -2.451910   -1.412231   -1.653600
     33          6           0       -3.592320   -0.411181   -1.919510
     34          1           0       -3.233350    0.617979   -1.951130
     35          1           0       -4.397910   -0.468661   -1.195080
     36          1           0       -4.022940   -0.631671   -2.899610
     37          6           0       -1.494910   -1.323131   -2.851100
     38          1           0       -2.056019   -1.543881   -3.762420
     39          1           0       -0.681879   -2.046171   -2.798350
     40          1           0       -1.074010   -0.323121   -2.957570
     41          6           0       -3.007009   -2.842921   -1.577050
     42          1           0       -3.780229   -2.956461   -0.819830
     43          1           0       -2.226509   -3.581531   -1.383830
     44          1           0       -3.459319   -3.097821   -2.539450
     45          6           0       -2.552010   -1.288301    1.515300
     46          6           0       -2.020950   -0.439551    2.682120
     47          1           0       -2.606400   -0.671421    3.576150
     48          1           0       -2.122310    0.626559    2.486510
     49          1           0       -0.980770   -0.643261    2.911490
     50          6           0       -2.504159   -2.772781    1.914670
     51          1           0       -3.196679   -2.930811    2.745760
     52          1           0       -1.519589   -3.079781    2.268010
     53          1           0       -2.802609   -3.442951    1.110410
     54          6           0       -4.018020   -0.878151    1.293400
     55          1           0       -4.541780   -1.527411    0.595530
     56          1           0       -4.119010    0.153719    0.954970
     57          1           0       -4.537630   -0.952871    2.251990
     58         45           0        0.000130    1.028000   -0.000200
     59          6           0       -1.226390    2.672009   -0.930050
     60          6           0       -1.606140    2.546269    0.393120
     61          6           0        1.227210    2.671380    0.929820
     62          6           0        1.606920    2.545650   -0.393380
     63          1           0       -1.821300    2.142769   -1.664910
     64          6           0       -0.350440    3.778519   -1.488580
     65          1           0       -2.502750    1.971329    0.595460
     66          6           0       -1.147010    3.414709    1.537970
     67          6           0        0.351700    3.778170    1.488510
     68          1           0        1.821970    2.141870    1.664600
     69          1           0        2.503400    1.970520   -0.595790
     70          6           0        1.148080    3.414320   -1.538190
     71          1           0       -0.501620    4.689029   -0.908830
     72          1           0       -0.687090    4.008829   -2.500640
     73          1           0       -1.751110    4.329559    1.578090
     74          1           0       -1.354060    2.882129    2.468410
     75          1           0        0.688410    4.008120    2.500640
     76          1           0        0.503360    4.688720    0.908960
     77          1           0        1.752660    4.328840   -1.578450
     78          1           0        1.354740    2.881570   -2.468630
 ---------------------------------------------------------------------

 SCF Done:  E(RB3LYP) =  -1776.31160780     A.U. after   15 cycles

      1  P    Isotropic =   286.9465   Anisotropy =   151.7902

      2  P    Isotropic =   286.9706   Anisotropy =   151.7851

      3  C    Isotropic =   146.3227   Anisotropy =    50.3374

      4  H    Isotropic =    28.7289   Anisotropy =     4.8199

      5  H    Isotropic =    28.7294   Anisotropy =     4.8206

      6  C    Isotropic =   133.0673   Anisotropy =    39.9081

      7  C    Isotropic =   150.5247   Anisotropy =    41.2949

      8  H    Isotropic =    30.8223   Anisotropy =     9.4606

      9  H    Isotropic =    29.9563   Anisotropy =     7.6902

     10  H    Isotropic =    29.7134   Anisotropy =     9.5439

     11  C    Isotropic =   151.9785   Anisotropy =    33.9907

     12  H    Isotropic =    30.6475   Anisotropy =    10.0624

     13  H    Isotropic =    30.3451   Anisotropy =     7.3579

     14  H    Isotropic =    30.5756   Anisotropy =     5.3005

     15  C    Isotropic =   156.6511   Anisotropy =    36.9508

     16  H    Isotropic =    30.4848   Anisotropy =     6.0597

     17  H    Isotropic =    30.4602   Anisotropy =     7.1770

     18  H    Isotropic =    30.7916   Anisotropy =    10.7250

     19  C    Isotropic =   133.3167   Anisotropy =    35.8621

     20  C    Isotropic =   155.8961   Anisotropy =    39.8622

     21  H    Isotropic =    31.0854   Anisotropy =     5.8326

     22  H    Isotropic =    30.2650   Anisotropy =     6.7246

     23  H    Isotropic =    30.9410   Anisotropy =    10.6616

     24  C    Isotropic =   158.2327   Anisotropy =    35.6272

     25  H    Isotropic =    30.8476   Anisotropy =    11.1690

     26  H    Isotropic =    30.4880   Anisotropy =     7.6362

     27  H    Isotropic =    30.7704   Anisotropy =     6.3797

     28  C    Isotropic =   148.1761   Anisotropy =    40.8232

     29  H    Isotropic =    30.7655   Anisotropy =     9.1709

     30  H    Isotropic =    30.5771   Anisotropy =     7.0389

     31  H    Isotropic =    30.2628   Anisotropy =     6.6182

     32  C    Isotropic =   133.3222   Anisotropy =    35.8559

     33  C    Isotropic =   155.8953   Anisotropy =    39.8639

     34  H    Isotropic =    31.0855   Anisotropy =     5.8330

     35  H    Isotropic =    30.2650   Anisotropy =     6.7241

     36  H    Isotropic =    30.9409   Anisotropy =    10.6618

     37  C    Isotropic =   148.1734   Anisotropy =    40.8241

     38  H    Isotropic =    30.7654   Anisotropy =     9.1708

     39  H    Isotropic =    30.5773   Anisotropy =     7.0399

     40  H    Isotropic =    30.2627   Anisotropy =     6.6193

     41  C    Isotropic =   158.2327   Anisotropy =    35.6219

     42  H    Isotropic =    30.4878   Anisotropy =     7.6364

     43  H    Isotropic =    30.7704   Anisotropy =     6.3802

     44  H    Isotropic =    30.8476   Anisotropy =    11.1690

     45  C    Isotropic =   133.0731   Anisotropy =    39.8981

     46  C    Isotropic =   150.5244   Anisotropy =    41.2937

     47  H    Isotropic =    30.8223   Anisotropy =     9.4604

     48  H    Isotropic =    29.9562   Anisotropy =     7.6914

     49  H    Isotropic =    29.7139   Anisotropy =     9.5439

     50  C    Isotropic =   156.6529   Anisotropy =    36.9545

     51  H    Isotropic =    30.7918   Anisotropy =    10.7248

     52  H    Isotropic =    30.4847   Anisotropy =     6.0600

     53  H    Isotropic =    30.4597   Anisotropy =     7.1772

     54  C    Isotropic =   151.9798   Anisotropy =    33.9890

     55  H    Isotropic =    30.3448   Anisotropy =     7.3581

     56  H    Isotropic =    30.5758   Anisotropy =     5.3008

     57  H    Isotropic =    30.6474   Anisotropy =    10.0625

     58  Rh   Isotropic =  -367.4648   Anisotropy =   422.5833

     59  C    Isotropic =    79.4503   Anisotropy =   121.6667

     60  C    Isotropic =    84.5573   Anisotropy =   106.9287

     61  C    Isotropic =    79.4596   Anisotropy =   121.6526

     62  C    Isotropic =    84.5698   Anisotropy =   106.9060

     63  H    Isotropic =    26.7430   Anisotropy =     5.8762

     64  C    Isotropic =   153.8748   Anisotropy =    26.6638

     65  H    Isotropic =    26.8698   Anisotropy =     3.8246

     66  C    Isotropic =   148.0191   Anisotropy =    29.7763

     67  C    Isotropic =   153.8720   Anisotropy =    26.6700

     68  H    Isotropic =    26.7428   Anisotropy =     5.8758

     69  H    Isotropic =    26.8712   Anisotropy =     3.8246

     70  C    Isotropic =   148.0148   Anisotropy =    29.7791

     71  H    Isotropic =    29.8362   Anisotropy =     9.6855

     72  H    Isotropic =    29.8144   Anisotropy =    11.4652

     73  H    Isotropic =    29.1507   Anisotropy =    12.7017

     74  H    Isotropic =    29.0651   Anisotropy =     6.6936

     75  H    Isotropic =    29.8141   Anisotropy =    11.4637

     76  H    Isotropic =    29.8359   Anisotropy =     9.6862

     77  H    Isotropic =    29.1505   Anisotropy =    12.7017

     78  H    Isotropic =    29.0647   Anisotropy =     6.6933

 The electronic state is 1-A.
 Alpha  occ. eigenvalues --  -77.23040 -77.23039 -10.31600 -10.31600 -10.31553
 Alpha  occ. eigenvalues --  -10.31552 -10.30410 -10.29411 -10.29411 -10.29260
 Alpha  occ. eigenvalues --  -10.29260 -10.27821 -10.27820 -10.27603 -10.27603
 Alpha  occ. eigenvalues --  -10.27251 -10.27251 -10.27053 -10.27053 -10.27037
 Alpha  occ. eigenvalues --  -10.27037 -10.27018 -10.27017 -10.26797 -10.26797
 Alpha  occ. eigenvalues --  -10.26545 -10.26545  -6.68960  -6.68960  -4.85255
 Alpha  occ. eigenvalues --   -4.85254  -4.85150  -4.85150  -4.84868  -4.84868
 Alpha  occ. eigenvalues --   -3.31696  -2.08523  -2.07937  -2.05150  -0.94895
 Alpha  occ. eigenvalues --   -0.94101  -0.93491  -0.92037  -0.91874  -0.89509
 Alpha  occ. eigenvalues --   -0.88356  -0.85783  -0.80782  -0.80471  -0.80356
 Alpha  occ. eigenvalues --   -0.80184  -0.80004  -0.79604  -0.79542  -0.79488
 Alpha  occ. eigenvalues --   -0.78985  -0.78111  -0.74774  -0.71771  -0.70910
 Alpha  occ. eigenvalues --   -0.66543  -0.66321  -0.66095  -0.63413  -0.62875
 Alpha  occ. eigenvalues --   -0.62850  -0.60695  -0.59523  -0.58385  -0.57710
 Alpha  occ. eigenvalues --   -0.57303  -0.56457  -0.56267  -0.55964  -0.55820
 Alpha  occ. eigenvalues --   -0.55582  -0.55211  -0.54575  -0.54450  -0.53892
 Alpha  occ. eigenvalues --   -0.53692  -0.53591  -0.52919  -0.52914  -0.52573
 Alpha  occ. eigenvalues --   -0.50801  -0.50503  -0.50376  -0.49778  -0.49516
 Alpha  occ. eigenvalues --   -0.49139  -0.49067  -0.48865  -0.48467  -0.48187
 Alpha  occ. eigenvalues --   -0.48042  -0.47769  -0.47725  -0.47638  -0.47530
 Alpha  occ. eigenvalues --   -0.46729  -0.46294  -0.45752  -0.45541  -0.45227
 Alpha  occ. eigenvalues --   -0.45145  -0.44935  -0.44681  -0.44559  -0.43394
 Alpha  occ. eigenvalues --   -0.43357  -0.43216  -0.42422  -0.41670  -0.40744
 Alpha  occ. eigenvalues --   -0.40656  -0.40457  -0.36708  -0.36089  -0.35302
 Alpha  occ. eigenvalues --   -0.34629  -0.33830  -0.30917
 Alpha virt. eigenvalues --   -0.16508  -0.14468  -0.09706  -0.09086  -0.08363
 Alpha virt. eigenvalues --   -0.08227  -0.07649  -0.07290  -0.06390  -0.06342
 Alpha virt. eigenvalues --   -0.05780  -0.04562  -0.04415  -0.04044  -0.03794

 Mulliken charges:
               1
     1  P    0.409551
     2  P    0.409516
     3  C   -0.620213
     4  H    0.191344
     5  H    0.191398
     6  C   -0.045129
     7  C   -0.347362
     8  H    0.154604
     9  H    0.123264
    10  H    0.131188
    11  C   -0.444929
    12  H    0.156532
    13  H    0.146107
    14  H    0.151964
    15  C   -0.395250
    16  H    0.131264
    17  H    0.159825
    18  H    0.154167
    19  C   -0.035331
    20  C   -0.413627
    21  H    0.140760
    22  H    0.164663
    23  H    0.153155
    24  C   -0.392225
    25  H    0.152693
    26  H    0.145502
    27  H    0.141213
    28  C   -0.442293
    29  H    0.164586
    30  H    0.136313
    31  H    0.151081
    32  C   -0.035284
    33  C   -0.413614
    34  H    0.140725
    35  H    0.164658
    36  H    0.153160
    37  C   -0.442298
    38  H    0.164585
    39  H    0.136311
    40  H    0.151088
    41  C   -0.392243
    42  H    0.145503
    43  H    0.141216
    44  H    0.152690
    45  C   -0.045170
    46  C   -0.347388
    47  H    0.154610
    48  H    0.123250
    49  H    0.131199
    50  C   -0.395207
    51  H    0.154166
    52  H    0.131265
    53  H    0.159822
    54  C   -0.444934
    55  H    0.146111
    56  H    0.151961
    57  H    0.156534
    58  Rh  -0.481641
    59  C   -0.002457
    60  C   -0.104347
    61  C   -0.002420
    62  C   -0.104385
    63  H    0.166526
    64  C   -0.344220
    65  H    0.184931
    66  C   -0.241879
    67  C   -0.344247
    68  H    0.166477
    69  H    0.184938
    70  C   -0.241844
    71  H    0.170256
    72  H    0.169672
    73  H    0.171978
    74  H    0.136857
    75  H    0.169666
    76  H    0.170266
    77  H    0.171975
    78  H    0.136855
 Sum of Mulliken charges =   1.00000

 Dipole moment (field-independent basis, Debye):
    X=             -0.0000    Y=             -1.2853    Z=              0.0004  Tot=              1.2853
 Quadrupole moment (field-independent basis, Debye-Ang):
   XX=           -173.2857   YY=           -176.0515   ZZ=           -186.5389
   XY=             -0.0003   XZ=              0.1855   YZ=             -0.0000

 Summary of Natural Population Analysis:

                                       Natural Population
                Natural  -----------------------------------------------
    Atom  No    Charge         Core      Valence    Rydberg      Total
 -----------------------------------------------------------------------
      P    1    1.03913      9.99690     3.91999    0.04399    13.96087
      P    2    1.03910      9.99690     3.92001    0.04399    13.96090
      C    3   -1.01533      1.99937     4.99776    0.01819     7.01533
      H    4    0.25349      0.00000     0.74380    0.00271     0.74651
      H    5    0.25349      0.00000     0.74380    0.00271     0.74651
      C    6   -0.23875      1.99940     4.22248    0.01687     6.23875
      C    7   -0.59879      1.99936     4.58984    0.00959     6.59879
      H    8    0.21836      0.00000     0.77975    0.00189     0.78164
      H    9    0.21013      0.00000     0.78766    0.00221     0.78987
      H   10    0.21212      0.00000     0.78625    0.00163     0.78788
      C   11   -0.60478      1.99935     4.59709    0.00834     6.60478
      H   12    0.22277      0.00000     0.77534    0.00188     0.77723
      H   13    0.20797      0.00000     0.79028    0.00175     0.79203
      H   14    0.20797      0.00000     0.79053    0.00150     0.79203
      C   15   -0.60897      1.99935     4.60066    0.00896     6.60897
      H   16    0.20002      0.00000     0.79820    0.00178     0.79998
      H   17    0.21339      0.00000     0.78487    0.00173     0.78661
      H   18    0.22474      0.00000     0.77344    0.00182     0.77526
      C   19   -0.25072      1.99941     4.23442    0.01689     6.25072
      C   20   -0.60329      1.99935     4.59565    0.00829     6.60329
      H   21    0.20564      0.00000     0.79278    0.00158     0.79436
      H   22    0.21616      0.00000     0.78228    0.00156     0.78384
      H   23    0.22047      0.00000     0.77771    0.00182     0.77953
      C   24   -0.60986      1.99935     4.60145    0.00906     6.60986
      H   25    0.22335      0.00000     0.77485    0.00180     0.77665
      H   26    0.20887      0.00000     0.78941    0.00172     0.79113
      H   27    0.20601      0.00000     0.79223    0.00175     0.79399
      C   28   -0.60291      1.99935     4.59465    0.00890     6.60291
      H   29    0.22493      0.00000     0.77318    0.00189     0.77507
      H   30    0.19955      0.00000     0.79837    0.00208     0.80045
      H   31    0.21634      0.00000     0.78205    0.00161     0.78366
      C   32   -0.25074      1.99941     4.23444    0.01689     6.25074
      C   33   -0.60329      1.99935     4.59564    0.00829     6.60329
      H   34    0.20564      0.00000     0.79278    0.00158     0.79436
      H   35    0.21615      0.00000     0.78228    0.00156     0.78385
      H   36    0.22047      0.00000     0.77771    0.00182     0.77953
      C   37   -0.60290      1.99935     4.59465    0.00890     6.60290
      H   38    0.22494      0.00000     0.77318    0.00189     0.77506
      H   39    0.19955      0.00000     0.79837    0.00208     0.80045
      H   40    0.21634      0.00000     0.78206    0.00161     0.78366
      C   41   -0.60986      1.99935     4.60145    0.00906     6.60986
      H   42    0.20887      0.00000     0.78941    0.00172     0.79113
      H   43    0.20601      0.00000     0.79223    0.00175     0.79399
      H   44    0.22335      0.00000     0.77486    0.00180     0.77665
      C   45   -0.23879      1.99940     4.22252    0.01687     6.23879
      C   46   -0.59879      1.99936     4.58984    0.00959     6.59879
      H   47    0.21836      0.00000     0.77975    0.00189     0.78164
      H   48    0.21013      0.00000     0.78766    0.00221     0.78987
      H   49    0.21211      0.00000     0.78626    0.00163     0.78789
      C   50   -0.60897      1.99935     4.60066    0.00896     6.60897
      H   51    0.22474      0.00000     0.77344    0.00182     0.77526
      H   52    0.20002      0.00000     0.79820    0.00178     0.79998
      H   53    0.21340      0.00000     0.78487    0.00173     0.78660
      C   54   -0.60478      1.99935     4.59709    0.00834     6.60478
      H   55    0.20797      0.00000     0.79028    0.00175     0.79203
      H   56    0.20797      0.00000     0.79053    0.00150     0.79203
      H   57    0.22277      0.00000     0.77534    0.00188     0.77723
     Rh   58   -0.30080     35.98589     9.28677    0.02814    45.30080
      C   59   -0.16881      1.99910     4.15019    0.01952     6.16881
      C   60   -0.17946      1.99910     4.16081    0.01955     6.17946
      C   61   -0.16879      1.99910     4.15017    0.01952     6.16879
      C   62   -0.17950      1.99910     4.16085    0.01955     6.17950
      H   63    0.21924      0.00000     0.77834    0.00242     0.78076
      C   64   -0.42282      1.99935     4.41153    0.01193     6.42282
      H   65    0.21862      0.00000     0.77894    0.00244     0.78138
      C   66   -0.41540      1.99934     4.40341    0.01265     6.41540
      C   67   -0.42282      1.99935     4.41153    0.01194     6.42282
      H   68    0.21923      0.00000     0.77835    0.00242     0.78077
      H   69    0.21862      0.00000     0.77895    0.00244     0.78138
      C   70   -0.41538      1.99934     4.40339    0.01265     6.41538
      H   71    0.21677      0.00000     0.78129    0.00194     0.78323
      H   72    0.22893      0.00000     0.76958    0.00149     0.77107
      H   73    0.23280      0.00000     0.76528    0.00192     0.76720
      H   74    0.21491      0.00000     0.78323    0.00185     0.78509
      H   75    0.22893      0.00000     0.76958    0.00149     0.77107
      H   76    0.21677      0.00000     0.78129    0.00194     0.78323
      H   77    0.23280      0.00000     0.76528    0.00192     0.76720
      H   78    0.21491      0.00000     0.78324    0.00185     0.78509
 =======================================================================
   * Total *    1.00000    105.96269   167.50834    0.52897   274.00000

 Normal termination of Gaussian 16 at Tue Jan 21 10:29:50 2025.
