 Gaussian 16, Revision B.01,
 Gaussian 16:  ES64L-G16RevB.01 20-Dec-2017

 ------------------------------------------
 # nmr=giao b3lyp/genecp pop=nbo scfcyc=200
 ------------------------------------------

 ---------
 MB-23_SPE
 ---------
 Symbolic Z-matrix:
 Charge =  1 Multiplicity = 1

                         Standard orientation:
 ---------------------------------------------------------------------
 Center     Atomic      Atomic             Coordinates (Angstroms)
 Number     Number       Type             X           Y           Z
 ---------------------------------------------------------------------
      1         15           0       -0.966489    1.171591    0.378309
      2         15           0        1.624400    0.111188    0.213169
      3          6           0        0.751391    1.559409    1.019889
      4          1           0        0.787151    1.425009    2.100089
      5          1           0        1.126602    2.555388    0.789589
      6          6           0       -2.171239    1.596012    1.767159
      7          1           0       -1.972478    2.644002    2.012559
      8          6           0       -1.885210    0.740352    3.006859
      9          1           0       -2.539709    1.037143    3.826509
     10          1           0       -0.862530    0.855111    3.366599
     11          1           0       -2.054021   -0.319788    2.808869
     12          6           0       -3.632999    1.476344    1.291149
     13          1           0       -3.849870    0.433854    1.038309
     14          1           0       -3.764968    2.048394    0.371429
     15          6           0       -1.155528    2.461371   -0.996061
     16          1           0       -0.161458    2.430800   -1.456081
     17          6           0       -2.163768    2.056822   -2.077531
     18          1           0       -3.190088    2.052763   -1.707731
     19          1           0       -1.939989    1.067292   -2.475491
     20          1           0       -2.122067    2.759332   -2.910721
     21          6           0       -1.374136    3.886061   -0.451021
     22          1           0       -0.709066    4.062561    0.399629
     23          1           0       -2.393296    3.976852   -0.065911
     24          6           0        2.842489   -0.573383    1.479239
     25          1           0        3.296788   -1.423484    0.958779
     26          6           0        2.073138   -1.112693    2.694599
     27          1           0        2.717297   -1.754313    3.295819
     28          1           0        1.200807   -1.696712    2.400379
     29          1           0        1.732339   -0.301622    3.342139
     30          6           0        3.961420    0.406965    1.877069
     31          1           0        3.519081    1.298686    2.333219
     32          1           0        4.483410    0.745525    0.982049
     33          6           0        2.567650    0.738957   -1.306211
     34          1           0        1.768400    0.795358   -2.052651
     35          6           0        3.558159   -0.339684   -1.771791
     36          1           0        3.911079   -0.118645   -2.779101
     37          1           0        3.103698   -1.331294   -1.803791
     38          1           0        4.432729   -0.391475   -1.121181
     39          6           0        3.203442    2.137836   -1.202901
     40          1           0        4.042982    2.121525   -0.505481
     41          1           0        2.478833    2.842947   -0.789711
     42         45           0       -0.395802   -1.050230   -0.271111
     43          6           0       -2.331623   -2.215538    0.042559
     44          6           0       -2.351293   -1.671118   -1.223681
     45          6           0        0.300586   -2.840231   -1.481641
     46          6           0        0.419596   -3.144561   -0.140331
     47          1           0       -2.829043   -1.653677    0.824629
     48          6           0       -2.038505   -3.666658    0.375379
     49          1           0       -2.897521   -0.743567   -1.352591
     50          6           0       -1.998053   -2.370878   -2.511941
     51          6           0       -0.797174   -3.334549   -2.405031
     52          1           0        1.187637   -2.467192   -1.981051
     53          1           0        1.402366   -3.036552    0.305789
     54          6           0       -0.553505   -3.943940    0.690439
     55          1           0       -2.379026   -4.303708   -0.440551
     56          1           0       -2.635205   -3.949497    1.244159
     57          1           0       -2.873454   -2.910507   -2.894211
     58          1           0       -1.774642   -1.603958   -3.257071
     59          1           0       -0.374445   -3.472140   -3.401591
     60          1           0       -1.129086   -4.321269   -2.082931
     61          1           0       -0.344286   -5.015100    0.578049
     62          1           0       -0.362665   -3.713910    1.740959
     63          6           0        3.679372    2.682406   -2.554601
     64          1           0        4.039824    3.706225   -2.443531
     65          1           0        4.497672    2.094255   -2.971001
     66          1           0        2.867712    2.694176   -3.286661
     67          6           0       -1.127125    4.985311   -1.489651
     68          1           0       -1.832415    4.933552   -2.319651
     69          1           0       -1.235914    5.969741   -1.031861
     70          1           0       -0.116985    4.922030   -1.902041
     71          6           0       -4.659418    1.975355    2.313489
     72          1           0       -5.661768    1.950506    1.883279
     73          1           0       -4.678329    1.362955    3.215259
     74          1           0       -4.452507    3.006405    2.610359
     75          6           0        4.995019   -0.193406    2.836509
     76          1           0        5.807660    0.515133    3.004089
     77          1           0        4.566209   -0.432975    3.809859
     78          1           0        5.432868   -1.106856    2.426249
 ---------------------------------------------------------------------

 SCF Done:  E(RB3LYP) =  -1776.34158131     A.U. after   15 cycles

      1  P    Isotropic =   305.8813   Anisotropy =   102.9172

      2  P    Isotropic =   297.7323   Anisotropy =   103.3673

      3  C    Isotropic =   152.6100   Anisotropy =    47.4057

      4  H    Isotropic =    28.9792   Anisotropy =     3.9572

      5  H    Isotropic =    29.3928   Anisotropy =     8.1504

      6  C    Isotropic =   142.0430   Anisotropy =    33.8901

      7  H    Isotropic =    29.8976   Anisotropy =     4.3778

      8  C    Isotropic =   169.5392   Anisotropy =    22.8930

      9  H    Isotropic =    30.1580   Anisotropy =    10.9046

     10  H    Isotropic =    30.8973   Anisotropy =     7.3853

     11  H    Isotropic =    31.0929   Anisotropy =     6.5448

     12  C    Isotropic =   155.6727   Anisotropy =    19.8247

     13  H    Isotropic =    31.0740   Anisotropy =     6.9275

     14  H    Isotropic =    30.3847   Anisotropy =     6.9600

     15  C    Isotropic =   135.6634   Anisotropy =    33.9321

     16  H    Isotropic =    30.3458   Anisotropy =     5.8285

     17  C    Isotropic =   165.9781   Anisotropy =    22.8746

     18  H    Isotropic =    30.9108   Anisotropy =     6.9946

     19  H    Isotropic =    30.1947   Anisotropy =     7.6600

     20  H    Isotropic =    30.0587   Anisotropy =    10.0631

     21  C    Isotropic =   157.8402   Anisotropy =    15.2929

     22  H    Isotropic =    30.2958   Anisotropy =     4.8217

     23  H    Isotropic =    30.5370   Anisotropy =     6.4871

     24  C    Isotropic =   143.4333   Anisotropy =    32.4723

     25  H    Isotropic =    29.9160   Anisotropy =     3.1250

     26  C    Isotropic =   168.1881   Anisotropy =    22.3603

     27  H    Isotropic =    30.0467   Anisotropy =    10.3940

     28  H    Isotropic =    30.1668   Anisotropy =     8.7165

     29  H    Isotropic =    31.0643   Anisotropy =     6.2186

     30  C    Isotropic =   154.5421   Anisotropy =    18.7943

     31  H    Isotropic =    30.7993   Anisotropy =     4.7150

     32  H    Isotropic =    30.3085   Anisotropy =     7.8808

     33  C    Isotropic =   140.3392   Anisotropy =    35.1346

     34  H    Isotropic =    29.8162   Anisotropy =     5.1899

     35  C    Isotropic =   171.2803   Anisotropy =    19.6501

     36  H    Isotropic =    30.1440   Anisotropy =    10.5855

     37  H    Isotropic =    31.0920   Anisotropy =     6.6351

     38  H    Isotropic =    31.2400   Anisotropy =     8.2475

     39  C    Isotropic =   156.4729   Anisotropy =    16.0002

     40  H    Isotropic =    30.5260   Anisotropy =     6.8831

     41  H    Isotropic =    30.2457   Anisotropy =     6.0609

     42  Rh   Isotropic =  -318.1627   Anisotropy =   363.6653

     43  C    Isotropic =    78.5226   Anisotropy =   123.2869

     44  C    Isotropic =    80.3287   Anisotropy =   114.2175

     45  C    Isotropic =    79.5149   Anisotropy =   120.4711

     46  C    Isotropic =    80.3435   Anisotropy =   112.1802

     47  H    Isotropic =    26.7913   Anisotropy =     6.1074

     48  C    Isotropic =   154.0038   Anisotropy =    25.7333

     49  H    Isotropic =    26.5340   Anisotropy =     3.6951

     50  C    Isotropic =   148.2061   Anisotropy =    29.8008

     51  C    Isotropic =   153.9343   Anisotropy =    25.6567

     52  H    Isotropic =    26.9156   Anisotropy =     6.8096

     53  H    Isotropic =    26.7880   Anisotropy =     3.6444

     54  C    Isotropic =   147.7369   Anisotropy =    29.4984

     55  H    Isotropic =    29.8055   Anisotropy =     9.5661

     56  H    Isotropic =    29.8349   Anisotropy =    11.3460

     57  H    Isotropic =    29.1474   Anisotropy =    12.6363

     58  H    Isotropic =    29.1745   Anisotropy =     7.2999

     59  H    Isotropic =    29.8334   Anisotropy =    11.5891

     60  H    Isotropic =    29.8031   Anisotropy =     9.5898

     61  H    Isotropic =    29.1131   Anisotropy =    12.6006

     62  H    Isotropic =    29.1287   Anisotropy =     6.9489

     63  C    Isotropic =   170.6471   Anisotropy =    26.5939

     64  H    Isotropic =    30.5684   Anisotropy =    11.9110

     65  H    Isotropic =    30.5788   Anisotropy =     9.4013

     66  H    Isotropic =    31.3743   Anisotropy =     8.1551

     67  C    Isotropic =   170.1415   Anisotropy =    27.2283

     68  H    Isotropic =    30.5161   Anisotropy =     9.1112

     69  H    Isotropic =    30.4815   Anisotropy =    12.2326

     70  H    Isotropic =    31.3089   Anisotropy =     8.5005

     71  C    Isotropic =   171.6076   Anisotropy =    25.9451

     72  H    Isotropic =    30.7013   Anisotropy =    12.0380

     73  H    Isotropic =    30.6687   Anisotropy =     9.0354

     74  H    Isotropic =    31.2779   Anisotropy =     9.9734

     75  C    Isotropic =   171.2062   Anisotropy =    25.3216

     76  H    Isotropic =    30.6380   Anisotropy =    12.2998

     77  H    Isotropic =    30.7434   Anisotropy =     8.7734

     78  H    Isotropic =    31.2114   Anisotropy =     9.5113

 The electronic state is 1-A.
 Alpha  occ. eigenvalues --  -77.23110 -77.22995 -10.30427 -10.30356 -10.30343
 Alpha  occ. eigenvalues --  -10.30277 -10.30142 -10.29353 -10.29263 -10.29247
 Alpha  occ. eigenvalues --  -10.29151 -10.27869 -10.27821 -10.27813 -10.27786
 Alpha  occ. eigenvalues --  -10.27770 -10.27659 -10.27573 -10.27548 -10.27428
 Alpha  occ. eigenvalues --  -10.27144 -10.27102 -10.26933 -10.25623 -10.25587
 Alpha  occ. eigenvalues --  -10.25384 -10.25331  -6.69145  -6.69032  -4.85445
 Alpha  occ. eigenvalues --   -4.85330  -4.85329  -4.85211  -4.85043  -4.84936
 Alpha  occ. eigenvalues --   -3.31592  -2.08471  -2.07815  -2.05043  -0.94779
 Alpha  occ. eigenvalues --   -0.93447  -0.92549  -0.90838  -0.90716  -0.89460
 Alpha  occ. eigenvalues --   -0.88303  -0.86611  -0.83691  -0.83238  -0.83088
 Alpha  occ. eigenvalues --   -0.82658  -0.80636  -0.78115  -0.77484  -0.75971
 Alpha  occ. eigenvalues --   -0.75055  -0.74738  -0.71467  -0.70866  -0.70623
 Alpha  occ. eigenvalues --   -0.68436  -0.68058  -0.66227  -0.64931  -0.64653
 Alpha  occ. eigenvalues --   -0.62827  -0.60504  -0.58867  -0.58224  -0.57879
 Alpha  occ. eigenvalues --   -0.57492  -0.57153  -0.56573  -0.56397  -0.56300
 Alpha  occ. eigenvalues --   -0.55649  -0.54291  -0.53938  -0.53676  -0.53119
 Alpha  occ. eigenvalues --   -0.52992  -0.52906  -0.52834  -0.52506  -0.52141
 Alpha  occ. eigenvalues --   -0.50138  -0.49545  -0.49414  -0.49193  -0.49040
 Alpha  occ. eigenvalues --   -0.48875  -0.48826  -0.48486  -0.48222  -0.48033
 Alpha  occ. eigenvalues --   -0.47963  -0.47649  -0.47226  -0.47075  -0.46540
 Alpha  occ. eigenvalues --   -0.46228  -0.46185  -0.45237  -0.44697  -0.44538
 Alpha  occ. eigenvalues --   -0.44231  -0.44000  -0.43946  -0.43610  -0.43476
 Alpha  occ. eigenvalues --   -0.43402  -0.43289  -0.42255  -0.41821  -0.41239
 Alpha  occ. eigenvalues --   -0.41025  -0.40454  -0.36627  -0.36414  -0.35104
 Alpha  occ. eigenvalues --   -0.34661  -0.33834  -0.30836
 Alpha virt. eigenvalues --   -0.16351  -0.13965  -0.09711  -0.08989  -0.08631
 Alpha virt. eigenvalues --   -0.08299  -0.07601  -0.07170  -0.06764  -0.05951
 Alpha virt. eigenvalues --   -0.05708  -0.05002  -0.04866  -0.04389  -0.04142

 Mulliken charges:
               1
     1  P    0.388574
     2  P    0.411930
     3  C   -0.618850
     4  H    0.198561
     5  H    0.212342
     6  C   -0.163595
     7  H    0.180241
     8  C   -0.413592
     9  H    0.174142
    10  H    0.124254
    11  H    0.128450
    12  C   -0.212374
    13  H    0.132926
    14  H    0.120461
    15  C   -0.162328
    16  H    0.131204
    17  C   -0.449483
    18  H    0.145595
    19  H    0.148979
    20  H    0.163666
    21  C   -0.198110
    22  H    0.127461
    23  H    0.135023
    24  C   -0.224720
    25  H    0.175621
    26  C   -0.444186
    27  H    0.175865
    28  H    0.150574
    29  H    0.133279
    30  C   -0.172019
    31  H    0.129810
    32  H    0.113439
    33  C   -0.170793
    34  H    0.165533
    35  C   -0.456445
    36  H    0.168478
    37  H    0.144465
    38  H    0.151844
    39  C   -0.179719
    40  H    0.145212
    41  H    0.107234
    42  Rh  -0.472284
    43  C   -0.015606
    44  C   -0.123503
    45  C   -0.030489
    46  C   -0.101442
    47  H    0.165169
    48  C   -0.344068
    49  H    0.201060
    50  C   -0.225882
    51  C   -0.345045
    52  H    0.171565
    53  H    0.190742
    54  C   -0.230769
    55  H    0.170187
    56  H    0.168946
    57  H    0.171860
    58  H    0.131862
    59  H    0.169563
    60  H    0.168040
    61  H    0.171966
    62  H    0.130876
    63  C   -0.391264
    64  H    0.148467
    65  H    0.137361
    66  H    0.117272
    67  C   -0.384792
    68  H    0.133062
    69  H    0.149990
    70  H    0.118410
    71  C   -0.397303
    72  H    0.148356
    73  H    0.135287
    74  H    0.125253
    75  C   -0.392099
    76  H    0.147740
    77  H    0.139066
    78  H    0.123495
 Sum of Mulliken charges =   1.00000

 Dipole moment (field-independent basis, Debye):
    X=              0.5595    Y=              0.7716    Z=              0.3115  Tot=              1.0028
 Quadrupole moment (field-independent basis, Debye-Ang):
   XX=           -170.0795   YY=           -173.4135   ZZ=           -187.3373
   XY=              0.1526   XZ=             -0.0339   YZ=              1.3604

 Summary of Natural Population Analysis:

                                       Natural Population
                Natural  -----------------------------------------------
    Atom  No    Charge         Core      Valence    Rydberg      Total
 -----------------------------------------------------------------------
      P    1    1.09753      9.99687     3.85965    0.04595    13.90247
      P    2    1.10430      9.99684     3.85156    0.04731    13.89570
      C    3   -1.00880      1.99941     4.99143    0.01796     7.00880
      H    4    0.25792      0.00000     0.73979    0.00229     0.74208
      H    5    0.24860      0.00000     0.74891    0.00249     0.75140
      C    6   -0.46657      1.99938     4.45100    0.01619     6.46657
      H    7    0.22245      0.00000     0.77501    0.00254     0.77755
      C    8   -0.59535      1.99941     4.58872    0.00723     6.59535
      H    9    0.22691      0.00000     0.77164    0.00145     0.77309
      H   10    0.20312      0.00000     0.79521    0.00167     0.79688
      H   11    0.21004      0.00000     0.78841    0.00155     0.78996
      C   12   -0.38745      1.99940     4.37757    0.01048     6.38745
      H   13    0.19662      0.00000     0.80140    0.00198     0.80338
      H   14    0.19764      0.00000     0.80007    0.00229     0.80236
      C   15   -0.45483      1.99939     4.43763    0.01782     6.45483
      H   16    0.21512      0.00000     0.78239    0.00249     0.78488
      C   17   -0.59809      1.99940     4.59142    0.00728     6.59809
      H   18    0.20485      0.00000     0.79354    0.00161     0.79515
      H   19    0.21464      0.00000     0.78380    0.00156     0.78536
      H   20    0.22248      0.00000     0.77597    0.00155     0.77752
      C   21   -0.39311      1.99940     4.38247    0.01124     6.39311
      H   22    0.19428      0.00000     0.80335    0.00236     0.80572
      H   23    0.20074      0.00000     0.79748    0.00179     0.79926
      C   24   -0.46712      1.99938     4.45220    0.01554     6.46712
      H   25    0.22282      0.00000     0.77499    0.00219     0.77718
      C   26   -0.60029      1.99941     4.59306    0.00782     6.60029
      H   27    0.22761      0.00000     0.77101    0.00138     0.77239
      H   28    0.21877      0.00000     0.77944    0.00179     0.78123
      H   29    0.20078      0.00000     0.79749    0.00173     0.79922
      C   30   -0.38884      1.99940     4.37808    0.01135     6.38884
      H   31    0.19478      0.00000     0.80320    0.00202     0.80522
      H   32    0.19793      0.00000     0.79996    0.00210     0.80207
      C   33   -0.46180      1.99938     4.44523    0.01719     6.46180
      H   34    0.22397      0.00000     0.77390    0.00212     0.77603
      C   35   -0.60087      1.99940     4.59381    0.00766     6.60087
      H   36    0.22759      0.00000     0.77096    0.00145     0.77241
      H   37    0.20742      0.00000     0.79104    0.00154     0.79258
      H   38    0.20800      0.00000     0.79047    0.00153     0.79200
      C   39   -0.38743      1.99939     4.37735    0.01068     6.38743
      H   40    0.20124      0.00000     0.79689    0.00187     0.79876
      H   41    0.19041      0.00000     0.80715    0.00243     0.80959
     Rh   42   -0.37683     35.98614     9.36445    0.02624    45.37683
      C   43   -0.16989      1.99908     4.15105    0.01977     6.16989
      C   44   -0.17380      1.99909     4.15474    0.01997     6.17380
      C   45   -0.17398      1.99908     4.15523    0.01967     6.17398
      C   46   -0.16840      1.99909     4.14927    0.02004     6.16840
      H   47    0.22020      0.00000     0.77755    0.00224     0.77980
      C   48   -0.42429      1.99936     4.41283    0.01211     6.42429
      H   49    0.22431      0.00000     0.77367    0.00202     0.77569
      C   50   -0.41739      1.99935     4.40523    0.01281     6.41739
      C   51   -0.42318      1.99936     4.41182    0.01201     6.42318
      H   52    0.22049      0.00000     0.77733    0.00218     0.77951
      H   53    0.21997      0.00000     0.77806    0.00197     0.78003
      C   54   -0.41714      1.99935     4.40500    0.01280     6.41714
      H   55    0.21581      0.00000     0.78229    0.00190     0.78419
      H   56    0.22850      0.00000     0.77006    0.00144     0.77150
      H   57    0.23356      0.00000     0.76461    0.00184     0.76644
      H   58    0.21501      0.00000     0.78323    0.00176     0.78499
      H   59    0.22867      0.00000     0.76990    0.00143     0.77133
      H   60    0.21558      0.00000     0.78253    0.00189     0.78442
      H   61    0.23332      0.00000     0.76485    0.00183     0.76668
      H   62    0.21465      0.00000     0.78355    0.00180     0.78535
      C   63   -0.59032      1.99946     4.58433    0.00653     6.59032
      H   64    0.22009      0.00000     0.77882    0.00109     0.77991
      H   65    0.20601      0.00000     0.79267    0.00132     0.79399
      H   66    0.19973      0.00000     0.79888    0.00139     0.80027
      C   67   -0.58921      1.99946     4.58323    0.00652     6.58921
      H   68    0.20574      0.00000     0.79287    0.00138     0.79426
      H   69    0.22080      0.00000     0.77810    0.00109     0.77920
      H   70    0.19917      0.00000     0.79948    0.00136     0.80083
      C   71   -0.59111      1.99946     4.58507    0.00658     6.59111
      H   72    0.22001      0.00000     0.77890    0.00109     0.77999
      H   73    0.20462      0.00000     0.79404    0.00134     0.79538
      H   74    0.20416      0.00000     0.79451    0.00133     0.79584
      C   75   -0.59116      1.99946     4.58523    0.00648     6.59116
      H   76    0.22035      0.00000     0.77856    0.00109     0.77965
      H   77    0.20504      0.00000     0.79366    0.00130     0.79496
      H   78    0.20289      0.00000     0.79577    0.00134     0.79711
 =======================================================================
   * Total *    1.00000    105.96357   167.51603    0.52040   274.00000

 Normal termination of Gaussian 16 at Tue Jan 21 10:25:37 2025.
