 Gaussian 16, Revision B.01,
 Gaussian 16:  ES64L-G16RevB.01 20-Dec-2017

 ------------------------------------------
 # nmr=giao b3lyp/genecp pop=nbo scfcyc=200
 ------------------------------------------

 ------------
 Ligand 5 SPE
 ------------
 Symbolic Z-matrix:
 Charge =  1 Multiplicity = 1

                         Standard orientation:
 ---------------------------------------------------------------------
 Center     Atomic      Atomic             Coordinates (Angstroms)
 Number     Number       Type             X           Y           Z
 ---------------------------------------------------------------------
      1          6           0       -0.175001   -2.041998    0.921891
      2          1           0        0.401239   -2.092459    1.846641
      3          1           0       -0.580262   -3.027328    0.690911
      4          6           0        0.311399   -2.024459   -1.980189
      5          1           0        0.508068   -3.096639   -1.947829
      6          1           0        0.859699   -1.587199   -2.814169
      7          1           0       -0.753101   -1.846908   -2.129939
      8          6           0       -1.892130   -0.579087    2.864431
      9          1           0       -2.307151   -1.532287    3.192021
     10          1           0       -2.643499    0.198243    3.004541
     11          1           0       -1.016900   -0.339628    3.468191
     12          6           0        1.877662    2.237580   -0.265639
     13          1           0        2.689722    1.531229   -0.135149
     14          6           0        1.160062    2.163401   -1.440209
     15          1           0        1.481821    1.432080   -2.175369
     16          6           0        0.182063    3.182631   -1.970399
     17          1           0        0.721693    3.958801   -2.527039
     18          1           0       -0.453238    2.680772   -2.703519
     19          6           0       -0.709767    3.838412   -0.893469
     20          1           0       -1.605097    4.228803   -1.379809
     21          1           0       -0.207276    4.701662   -0.457749
     22          6           0       -1.137467    2.887672    0.209651
     23          1           0       -2.173538    2.568143    0.172611
     24          6           0       -0.470318    2.688672    1.402051
     25          1           0       -1.041268    2.264662    2.221501
     26          6           0        0.843433    3.301711    1.819651
     27          1           0        0.663974    4.289331    2.262701
     28          1           0        1.256232    2.686480    2.622031
     29          6           0        1.884603    3.418100    0.686971
     30          1           0        1.737834    4.341490    0.127491
     31          1           0        2.876263    3.493169    1.135901
     32         15           0        0.857350   -1.227189   -0.403019
     33         15           0       -1.406190   -0.636908    1.083221
     34         45           0        0.030891    0.940931    0.082291
     35          6           0       -2.919900   -1.171066    0.187621
     36          6           0       -3.623491   -2.317266    0.575711
     37          6           0       -3.378830   -0.420896   -0.897729
     38          6           0       -4.767662   -2.701335   -0.111859
     39          1           0       -3.286802   -2.917596    1.412881
     40          6           0       -4.526010   -0.808545   -1.584219
     41          1           0       -2.836009    0.463763   -1.207099
     42          6           0       -5.220571   -1.946735   -1.191669
     43          1           0       -5.307182   -3.588455    0.194951
     44          1           0       -4.876010   -0.220625   -2.423319
     45          1           0       -6.113821   -2.247604   -1.724239
     46          6           0        2.604599   -1.762860   -0.210159
     47          6           0        3.581950   -1.134021   -0.990199
     48          6           0        2.982838   -2.783531    0.665041
     49          6           0        4.912019   -1.525472   -0.899749
     50          1           0        3.311240   -0.342101   -1.679059
     51          6           0        4.316978   -3.168022    0.757361
     52          1           0        2.247428   -3.293620    1.273851
     53          6           0        5.281979   -2.540632   -0.022419
     54          1           0        5.659370   -1.035933   -1.511289
     55          1           0        4.599548   -3.961532    1.437571
     56          1           0        6.318908   -2.842683    0.050811
 ---------------------------------------------------------------------

 SCF Done:  E(RB3LYP) =  -1688.02763600     A.U. after   15 cycles

      1  C    Isotropic =   136.2411   Anisotropy =    44.3952

      2  H    Isotropic =    28.1736   Anisotropy =     6.4824

      3  H    Isotropic =    28.8076   Anisotropy =    10.5659

      4  C    Isotropic =   162.8338   Anisotropy =    31.3168

      5  H    Isotropic =    30.6666   Anisotropy =     9.6921

      6  H    Isotropic =    30.4722   Anisotropy =     8.5908

      7  H    Isotropic =    30.7715   Anisotropy =     8.6114

      8  C    Isotropic =   165.7322   Anisotropy =    29.3085

      9  H    Isotropic =    29.7603   Anisotropy =    10.7075

     10  H    Isotropic =    30.4700   Anisotropy =     8.5662

     11  H    Isotropic =    30.4511   Anisotropy =     8.5394

     12  C    Isotropic =    73.5525   Anisotropy =   130.3484

     13  H    Isotropic =    26.7809   Anisotropy =     6.7761

     14  C    Isotropic =    78.8477   Anisotropy =   114.3017

     15  H    Isotropic =    26.0488   Anisotropy =     5.2704

     16  C    Isotropic =   147.6839   Anisotropy =    29.8528

     17  H    Isotropic =    28.9536   Anisotropy =    12.3403

     18  H    Isotropic =    28.9593   Anisotropy =     8.0852

     19  C    Isotropic =   154.0307   Anisotropy =    24.7921

     20  H    Isotropic =    29.7262   Anisotropy =    11.5618

     21  H    Isotropic =    29.7327   Anisotropy =     9.1316

     22  C    Isotropic =    81.0030   Anisotropy =   118.3743

     23  H    Isotropic =    26.8960   Anisotropy =     6.9423

     24  C    Isotropic =    75.5046   Anisotropy =   117.6053

     25  H    Isotropic =    26.4726   Anisotropy =     4.7403

     26  C    Isotropic =   147.4003   Anisotropy =    30.3339

     27  H    Isotropic =    29.1058   Anisotropy =    12.4161

     28  H    Isotropic =    29.1421   Anisotropy =     7.7707

     29  C    Isotropic =   154.0510   Anisotropy =    24.9785

     30  H    Isotropic =    29.7813   Anisotropy =     8.9335

     31  H    Isotropic =    29.9209   Anisotropy =    11.1141

     32  P    Isotropic =   335.4689   Anisotropy =    69.4267

     33  P    Isotropic =   327.3309   Anisotropy =    81.0074

     34  Rh   Isotropic =  -308.2999   Anisotropy =   344.2498

     35  C    Isotropic =    44.5695   Anisotropy =   173.7888

     36  C    Isotropic =    49.3178   Anisotropy =   186.3573

     37  C    Isotropic =    43.2010   Anisotropy =   173.9874

     38  C    Isotropic =    47.4588   Anisotropy =   192.3083

     39  H    Isotropic =    24.1960   Anisotropy =    11.0427

     40  C    Isotropic =    48.8334   Anisotropy =   188.3657

     41  H    Isotropic =    23.6119   Anisotropy =    10.1402

     42  C    Isotropic =    44.2209   Anisotropy =   200.0797

     43  H    Isotropic =    23.9675   Anisotropy =     5.5722

     44  H    Isotropic =    24.0508   Anisotropy =     6.8532

     45  H    Isotropic =    23.8733   Anisotropy =     4.4428

     46  C    Isotropic =    45.0759   Anisotropy =   173.2841

     47  C    Isotropic =    49.0343   Anisotropy =   181.2422

     48  C    Isotropic =    51.9848   Anisotropy =   181.3999

     49  C    Isotropic =    48.1678   Anisotropy =   191.7693

     50  H    Isotropic =    24.7552   Anisotropy =    10.6588

     51  C    Isotropic =    47.7838   Anisotropy =   191.9667

     52  H    Isotropic =    24.5716   Anisotropy =    11.8515

     53  C    Isotropic =    45.6838   Anisotropy =   197.6696

     54  H    Isotropic =    24.1478   Anisotropy =     6.6420

     55  H    Isotropic =    24.0885   Anisotropy =     5.9271

     56  H    Isotropic =    24.0559   Anisotropy =     4.1033

 The electronic state is 1-A.
 Alpha  occ. eigenvalues --  -77.24679 -77.24520 -10.31243 -10.30408 -10.30352
 Alpha  occ. eigenvalues --  -10.29964 -10.29914 -10.29747 -10.29743 -10.29635
 Alpha  occ. eigenvalues --  -10.29344 -10.29245 -10.29199 -10.29115 -10.29059
 Alpha  occ. eigenvalues --  -10.28455 -10.28406 -10.28355 -10.28233 -10.28192
 Alpha  occ. eigenvalues --  -10.28168 -10.28141 -10.28030 -10.27968 -10.27919
 Alpha  occ. eigenvalues --   -6.70685  -6.70530  -4.86975  -4.86895  -4.86841
 Alpha  occ. eigenvalues --   -4.86727  -4.86586  -4.86422  -3.32456  -2.09377
 Alpha  occ. eigenvalues --   -2.08696  -2.05871  -0.97381  -0.97136  -0.95213
 Alpha  occ. eigenvalues --   -0.91001  -0.89977  -0.88712  -0.87948  -0.86166
 Alpha  occ. eigenvalues --   -0.85988  -0.85267  -0.84204  -0.82051  -0.81085
 Alpha  occ. eigenvalues --   -0.78550  -0.73795  -0.72805  -0.71956  -0.71675
 Alpha  occ. eigenvalues --   -0.71259  -0.67918  -0.67423  -0.66644  -0.63317
 Alpha  occ. eigenvalues --   -0.62799  -0.62120  -0.60865  -0.58010  -0.57813
 Alpha  occ. eigenvalues --   -0.57194  -0.56948  -0.56776  -0.56699  -0.55928
 Alpha  occ. eigenvalues --   -0.55189  -0.54480  -0.54309  -0.54065  -0.53753
 Alpha  occ. eigenvalues --   -0.53528  -0.53333  -0.53171  -0.53115  -0.52105
 Alpha  occ. eigenvalues --   -0.50775  -0.49924  -0.49005  -0.48811  -0.48391
 Alpha  occ. eigenvalues --   -0.47996  -0.47144  -0.46655  -0.46066  -0.46004
 Alpha  occ. eigenvalues --   -0.45589  -0.44886  -0.44381  -0.43983  -0.43928
 Alpha  occ. eigenvalues --   -0.43311  -0.42091  -0.38496  -0.37527  -0.37105
 Alpha  occ. eigenvalues --   -0.36911  -0.36650  -0.36482  -0.35656  -0.35502
 Alpha  occ. eigenvalues --   -0.34723  -0.31631
 Alpha virt. eigenvalues --   -0.17067  -0.15128  -0.14183  -0.12697  -0.12379
 Alpha virt. eigenvalues --   -0.12218  -0.10100  -0.08849  -0.08670  -0.07890
 Alpha virt. eigenvalues --   -0.07101  -0.06570  -0.06504  -0.05488  -0.04761

 Mulliken charges:
               1
     1  C   -0.539697
     2  H    0.192916
     3  H    0.218875
     4  C   -0.411117
     5  H    0.165933
     6  H    0.162723
     7  H    0.166421
     8  C   -0.426676
     9  H    0.170158
    10  H    0.171670
    11  H    0.161333
    12  C   -0.027506
    13  H    0.204668
    14  C   -0.093400
    15  H    0.167418
    16  C   -0.219798
    17  H    0.174033
    18  H    0.133424
    19  C   -0.350413
    20  H    0.170847
    21  H    0.168680
    22  C   -0.016249
    23  H    0.182744
    24  C   -0.103846
    25  H    0.187860
    26  C   -0.220247
    27  H    0.173245
    28  H    0.132010
    29  C   -0.346451
    30  H    0.168594
    31  H    0.172387
    32  P    0.255743
    33  P    0.323348
    34  Rh  -0.522347
    35  C   -0.177885
    36  C   -0.100538
    37  C   -0.040483
    38  C   -0.095512
    39  H    0.139115
    40  C   -0.105840
    41  H    0.156344
    42  C   -0.094632
    43  H    0.140047
    44  H    0.134940
    45  H    0.145572
    46  C   -0.047217
    47  C   -0.162443
    48  C   -0.079383
    49  C   -0.085255
    50  H    0.156796
    51  C   -0.078180
    52  H    0.136108
    53  C   -0.104995
    54  H    0.136517
    55  H    0.137227
    56  H    0.142418
 Sum of Mulliken charges =   1.00000

 Dipole moment (field-independent basis, Debye):
    X=             -0.4532    Y=             -1.2939    Z=              0.6101  Tot=              1.5006
 Quadrupole moment (field-independent basis, Debye-Ang):
   XX=           -133.7314   YY=           -145.8568   ZZ=           -164.1637
   XY=              2.7434   XZ=              0.2684   YZ=             -5.9981

 Summary of Natural Population Analysis:

                                       Natural Population
                Natural  -----------------------------------------------
    Atom  No    Charge         Core      Valence    Rydberg      Total
 -----------------------------------------------------------------------
      C    1   -0.98125      1.99945     4.96571    0.01609     6.98125
      H    2    0.26000      0.00000     0.73841    0.00158     0.74000
      H    3    0.25473      0.00000     0.74312    0.00214     0.74527
      C    4   -0.88756      1.99942     4.87823    0.00992     6.88756
      H    5    0.24026      0.00000     0.75798    0.00176     0.75974
      H    6    0.24193      0.00000     0.75695    0.00112     0.75807
      H    7    0.24383      0.00000     0.75490    0.00128     0.75617
      C    8   -0.89608      1.99942     4.88743    0.00923     6.89608
      H    9    0.23995      0.00000     0.75838    0.00166     0.76005
      H   10    0.24700      0.00000     0.75192    0.00108     0.75300
      H   11    0.24197      0.00000     0.75686    0.00117     0.75803
      C   12   -0.15947      1.99904     4.14072    0.01971     6.15947
      H   13    0.22981      0.00000     0.76786    0.00233     0.77019
      C   14   -0.16251      1.99905     4.14315    0.02031     6.16251
      H   15    0.22152      0.00000     0.77670    0.00178     0.77848
      C   16   -0.42194      1.99936     4.41004    0.01254     6.42194
      H   17    0.23539      0.00000     0.76280    0.00181     0.76461
      H   18    0.21838      0.00000     0.78007    0.00154     0.78162
      C   19   -0.42423      1.99937     4.41303    0.01183     6.42423
      H   20    0.22956      0.00000     0.76906    0.00138     0.77044
      H   21    0.21536      0.00000     0.78269    0.00195     0.78464
      C   22   -0.17645      1.99905     4.15737    0.02002     6.17645
      H   23    0.22804      0.00000     0.77029    0.00167     0.77196
      C   24   -0.14695      1.99905     4.12761    0.02029     6.14695
      H   25    0.22170      0.00000     0.77656    0.00174     0.77830
      C   26   -0.42153      1.99936     4.40964    0.01254     6.42153
      H   27    0.23503      0.00000     0.76317    0.00180     0.76497
      H   28    0.21963      0.00000     0.77884    0.00153     0.78037
      C   29   -0.42528      1.99936     4.41393    0.01198     6.42528
      H   30    0.21461      0.00000     0.78343    0.00196     0.78539
      H   31    0.23085      0.00000     0.76777    0.00138     0.76915
      P   32    1.12033      9.99668     3.83448    0.04851    13.87967
      P   33    1.12345      9.99660     3.82906    0.05089    13.87655
     Rh   34   -0.43355     35.98561     9.42218    0.02576    45.43355
      C   35   -0.35278      1.99901     4.33025    0.02352     6.35278
      C   36   -0.19236      1.99910     4.17722    0.01604     6.19236
      C   37   -0.18695      1.99910     4.17240    0.01545     6.18695
      C   38   -0.18816      1.99920     4.17432    0.01464     6.18816
      H   39    0.20922      0.00000     0.78860    0.00218     0.79078
      C   40   -0.19423      1.99920     4.18036    0.01468     6.19423
      H   41    0.22030      0.00000     0.77782    0.00188     0.77970
      C   42   -0.17225      1.99921     4.15848    0.01456     6.17225
      H   43    0.22510      0.00000     0.77367    0.00123     0.77490
      H   44    0.22333      0.00000     0.77546    0.00122     0.77667
      H   45    0.22532      0.00000     0.77352    0.00116     0.77468
      C   46   -0.33966      1.99901     4.31834    0.02231     6.33966
      C   47   -0.19849      1.99909     4.18405    0.01534     6.19849
      C   48   -0.19490      1.99909     4.18018    0.01562     6.19490
      C   49   -0.18752      1.99920     4.17371    0.01461     6.18752
      H   50    0.20885      0.00000     0.78918    0.00197     0.79115
      C   51   -0.18608      1.99920     4.17227    0.01461     6.18608
      H   52    0.20956      0.00000     0.78849    0.00195     0.79044
      C   53   -0.17767      1.99921     4.16388    0.01458     6.17767
      H   54    0.22385      0.00000     0.77493    0.00122     0.77615
      H   55    0.22389      0.00000     0.77489    0.00122     0.77611
      H   56    0.22507      0.00000     0.77376    0.00116     0.77493
 =======================================================================
   * Total *    1.00000    101.96043   139.50613    0.53344   242.00000

 Normal termination of Gaussian 16 at Mon Jan  1 03:30:58 2001.
