 Gaussian 16, Revision B.01,
 Gaussian 16:  ES64L-G16RevB.01 20-Dec-2017

 ------------------------------------------
 # nmr=giao b3lyp/genecp pop=nbo scfcyc=200
 ------------------------------------------

 ---------
 MB-25_SPE
 ---------
 Symbolic Z-matrix:
 Charge =  1 Multiplicity = 1

                         Standard orientation:
 ---------------------------------------------------------------------
 Center     Atomic      Atomic             Coordinates (Angstroms)
 Number     Number       Type             X           Y           Z
 ---------------------------------------------------------------------
      1         15           0        1.364510    0.955021    0.084560
      2         15           0       -1.427630    0.878708    0.078090
      3          6           0       -0.065661    2.161289   -0.054100
      4          6           0       -2.085608   -1.120843    2.997650
      5          1           0       -0.076302    2.601329   -1.050630
      6          1           0       -0.088632    2.964919    0.682880
      7          1           0       -2.683577   -1.986543    3.280870
      8          1           0       -1.265278   -1.457792    2.356110
      9          1           0       -1.631218   -0.712802    3.906120
     10         45           0        0.018642   -0.929451   -0.380700
     11          6           0        1.524323   -2.220259   -1.528340
     12          6           0        1.536843   -2.594919   -0.202280
     13          6           0       -1.371646   -2.739692   -0.477300
     14          6           0       -1.382917   -2.103632   -1.701320
     15          6           0        0.836754   -2.975210   -2.650120
     16          1           0        2.275132   -1.505138   -1.844470
     17          1           0        2.313103   -2.167488    0.424350
     18          6           0        0.809225   -3.767370    0.407730
     19          6           0       -0.610415   -4.011141   -0.152280
     20          1           0       -2.165777   -2.478673    0.213730
     21          6           0       -0.599057   -2.487951   -2.931700
     22          1           0       -2.207968   -1.427533   -1.896910
     23          1           0        1.427294   -2.857439   -3.560130
     24          1           0        0.840125   -4.041850   -2.427400
     25          1           0        1.412516   -4.676119    0.290230
     26          1           0        0.743454   -3.594770    1.483860
     27          1           0       -0.564564   -4.645061   -1.037610
     28          1           0       -1.179305   -4.574412    0.588990
     29          1           0       -0.558298   -1.614361   -3.585900
     30          1           0       -1.149066   -3.254442   -3.492020
     31          6           0        2.673249    1.435782   -1.174040
     32          1           0        2.147219    1.412202   -2.133440
     33          1           0        3.378010    0.602223   -1.179210
     34          6           0        2.134789    1.301632    1.759420
     35          1           0        1.310859    1.569051    2.424860
     36          1           0        2.762719    2.185622    1.632910
     37          6           0       -2.170260    1.126907    1.781570
     38          1           0       -2.820701    2.000966    1.713270
     39          1           0       -1.338001    1.378778    2.443050
     40          6           0       -2.792111    1.328287   -1.130910
     41          1           0       -3.465910    0.469456   -1.126330
     42          1           0       -2.298231    1.340137   -2.107580
     43          6           0       -2.859743    3.909466   -1.129840
     44          1           0       -2.076973    4.084677   -0.386650
     45          1           0       -2.379613    3.933057   -2.112940
     46          1           0       -3.555494    4.745656   -1.075900
     47          6           0        2.639047    4.016552   -1.203970
     48          1           0        2.125997    4.011032   -2.170580
     49          1           0        1.874697    4.166881   -0.436340
     50          1           0        3.301376    4.880803   -1.180320
     51          6           0        2.133482   -0.851058    3.136010
     52          1           0        1.728631   -0.381699    4.038330
     53          1           0        1.279742   -1.231459    2.567510
     54          1           0        2.749633   -1.695048    3.444640
     55          6           0        4.240621    0.056294    2.171210
     56          1           0        4.805412   -0.763636    2.597280
     57          1           0        4.803820    0.808284    1.633190
     58          6           0        2.921331    0.148062    2.335000
     59          6           0        3.409408    2.739843   -0.992950
     60          6           0        4.711748    2.745564   -0.708740
     61          1           0        5.276449    1.829375   -0.585950
     62          1           0        5.265077    3.671675   -0.613810
     63          6           0       -2.917839   -0.073644    2.311140
     64          6           0       -4.243069   -0.166205    2.206680
     65          1           0       -4.780598   -1.019886    2.600520
     66          1           0       -4.837020    0.616314    1.751800
     67          6           0       -3.570862    2.600856   -0.906090
     68          6           0       -4.861482    2.552204   -0.576270
     69          1           0       -5.385291    1.613274   -0.445190
     70          1           0       -5.446413    3.454904   -0.450410
 ---------------------------------------------------------------------

 SCF Done:  E(RB3LYP) =  -1771.43313258     A.U. after   15 cycles

      1  P    Isotropic =   333.1059   Anisotropy =    82.0125

      2  P    Isotropic =   331.8488   Anisotropy =    79.8502

      3  C    Isotropic =   132.6215   Anisotropy =    49.1703

      4  C    Isotropic =   157.3086   Anisotropy =    37.1128

      5  H    Isotropic =    28.4640   Anisotropy =     5.3173

      6  H    Isotropic =    29.3076   Anisotropy =     8.6504

      7  H    Isotropic =    29.8548   Anisotropy =     7.7043

      8  H    Isotropic =    29.0258   Anisotropy =     8.7445

      9  H    Isotropic =    29.8637   Anisotropy =     7.4692

     10  Rh   Isotropic =  -320.2247   Anisotropy =   353.7679

     11  C    Isotropic =    75.3819   Anisotropy =   126.3850

     12  C    Isotropic =    76.9687   Anisotropy =   118.5755

     13  C    Isotropic =    79.7357   Anisotropy =   122.1833

     14  C    Isotropic =    74.9379   Anisotropy =   118.7609

     15  C    Isotropic =   154.0117   Anisotropy =    25.3182

     16  H    Isotropic =    26.9577   Anisotropy =     6.3110

     17  H    Isotropic =    26.6357   Anisotropy =     4.5012

     18  C    Isotropic =   147.3482   Anisotropy =    28.0186

     19  C    Isotropic =   154.2068   Anisotropy =    24.7291

     20  H    Isotropic =    27.3200   Anisotropy =     6.3299

     21  C    Isotropic =   147.3078   Anisotropy =    30.8254

     22  H    Isotropic =    26.5077   Anisotropy =     4.0687

     23  H    Isotropic =    29.8919   Anisotropy =    11.4422

     24  H    Isotropic =    29.7948   Anisotropy =     9.0999

     25  H    Isotropic =    29.1440   Anisotropy =    12.4083

     26  H    Isotropic =    29.1781   Anisotropy =     6.8081

     27  H    Isotropic =    29.8155   Anisotropy =     9.5825

     28  H    Isotropic =    29.8741   Anisotropy =    11.1642

     29  H    Isotropic =    29.1266   Anisotropy =     7.6403

     30  H    Isotropic =    29.1478   Anisotropy =    12.4208

     31  C    Isotropic =   141.0360   Anisotropy =    39.4919

     32  H    Isotropic =    29.4571   Anisotropy =     4.3562

     33  H    Isotropic =    29.2063   Anisotropy =     4.9423

     34  C    Isotropic =   144.7555   Anisotropy =    38.3379

     35  H    Isotropic =    30.1440   Anisotropy =     4.6928

     36  H    Isotropic =    28.5121   Anisotropy =     6.1513

     37  C    Isotropic =   144.2031   Anisotropy =    38.6308

     38  H    Isotropic =    28.5295   Anisotropy =     6.2622

     39  H    Isotropic =    30.0885   Anisotropy =     4.6986

     40  C    Isotropic =   141.7673   Anisotropy =    38.4451

     41  H    Isotropic =    29.1689   Anisotropy =     4.9238

     42  H    Isotropic =    29.4555   Anisotropy =     4.5047

     43  C    Isotropic =   159.0773   Anisotropy =    36.7529

     44  H    Isotropic =    30.4700   Anisotropy =     4.8792

     45  H    Isotropic =    30.2783   Anisotropy =     6.7757

     46  H    Isotropic =    29.8148   Anisotropy =     9.4410

     47  C    Isotropic =   159.1966   Anisotropy =    36.4932

     48  H    Isotropic =    30.2766   Anisotropy =     6.7981

     49  H    Isotropic =    30.4810   Anisotropy =     4.6816

     50  H    Isotropic =    29.8159   Anisotropy =     9.4641

     51  C    Isotropic =   157.5391   Anisotropy =    37.4771

     52  H    Isotropic =    29.8235   Anisotropy =     7.7934

     53  H    Isotropic =    29.2995   Anisotropy =     7.6142

     54  H    Isotropic =    29.8127   Anisotropy =     7.6892

     55  C    Isotropic =    60.3087   Anisotropy =   128.1705

     56  H    Isotropic =    26.4628   Anisotropy =     6.9442

     57  H    Isotropic =    26.7036   Anisotropy =     7.7322

     58  C    Isotropic =    36.4032   Anisotropy =   178.1479

     59  C    Isotropic =    38.0630   Anisotropy =   169.5888

     60  C    Isotropic =    56.1326   Anisotropy =   123.0637

     61  H    Isotropic =    26.6516   Anisotropy =     8.3335

     62  H    Isotropic =    26.2935   Anisotropy =     6.8216

     63  C    Isotropic =    37.0189   Anisotropy =   176.8050

     64  C    Isotropic =    60.0048   Anisotropy =   127.7167

     65  H    Isotropic =    26.5022   Anisotropy =     7.0839

     66  H    Isotropic =    26.6812   Anisotropy =     7.7870

     67  C    Isotropic =    38.2261   Anisotropy =   169.3502

     68  C    Isotropic =    55.9592   Anisotropy =   123.3810

     69  H    Isotropic =    26.6442   Anisotropy =     8.3307

     70  H    Isotropic =    26.2866   Anisotropy =     6.8154

 The electronic state is 1-A.
 Alpha  occ. eigenvalues --  -77.24386 -77.24379 -10.31317 -10.30459 -10.30449
 Alpha  occ. eigenvalues --  -10.30223 -10.30221 -10.29964 -10.29833 -10.29658
 Alpha  occ. eigenvalues --  -10.29481 -10.29409 -10.29400 -10.29275 -10.29216
 Alpha  occ. eigenvalues --  -10.28230 -10.28160 -10.27976 -10.27919 -10.26975
 Alpha  occ. eigenvalues --  -10.26954 -10.26673 -10.26590 -10.26376 -10.26343
 Alpha  occ. eigenvalues --  -10.26133 -10.26081  -6.70377  -6.70372  -4.86673
 Alpha  occ. eigenvalues --   -4.86667  -4.86578  -4.86575  -4.86271  -4.86266
 Alpha  occ. eigenvalues --   -3.32448  -2.09345  -2.08655  -2.05907  -0.95201
 Alpha  occ. eigenvalues --   -0.93940  -0.93262  -0.92016  -0.91961  -0.89925
 Alpha  occ. eigenvalues --   -0.88700  -0.88560  -0.84283  -0.81596  -0.81053
 Alpha  occ. eigenvalues --   -0.80757  -0.80696  -0.79297  -0.79075  -0.78948
 Alpha  occ. eigenvalues --   -0.78883  -0.78499  -0.71267  -0.69284  -0.68383
 Alpha  occ. eigenvalues --   -0.66614  -0.64270  -0.64112  -0.63420  -0.63074
 Alpha  occ. eigenvalues --   -0.62558  -0.60787  -0.58559  -0.58209  -0.57996
 Alpha  occ. eigenvalues --   -0.57668  -0.57082  -0.56799  -0.56704  -0.56539
 Alpha  occ. eigenvalues --   -0.56334  -0.56115  -0.55338  -0.54698  -0.54325
 Alpha  occ. eigenvalues --   -0.53359  -0.53290  -0.53027  -0.52721  -0.52206
 Alpha  occ. eigenvalues --   -0.51160  -0.50550  -0.49321  -0.49225  -0.49025
 Alpha  occ. eigenvalues --   -0.48939  -0.48666  -0.48241  -0.47999  -0.47926
 Alpha  occ. eigenvalues --   -0.47876  -0.47240  -0.47150  -0.47043  -0.46634
 Alpha  occ. eigenvalues --   -0.46020  -0.45919  -0.45491  -0.44967  -0.44068
 Alpha  occ. eigenvalues --   -0.43842  -0.43636  -0.42911  -0.42133  -0.38236
 Alpha  occ. eigenvalues --   -0.37507  -0.36843  -0.36461  -0.35807  -0.35509
 Alpha  occ. eigenvalues --   -0.35476  -0.34756  -0.34255  -0.31702
 Alpha virt. eigenvalues --   -0.17064  -0.15110  -0.11598  -0.11147  -0.10376
 Alpha virt. eigenvalues --   -0.10060  -0.09587  -0.09016  -0.08434  -0.08004
 Alpha virt. eigenvalues --   -0.07979  -0.07089  -0.06011  -0.05338  -0.05177

 Mulliken charges:
               1
     1  P    0.383987
     2  P    0.392339
     3  C   -0.625871
     4  C   -0.440317
     5  H    0.221821
     6  H    0.215380
     7  H    0.152302
     8  H    0.121348
     9  H    0.152207
    10  Rh  -0.494843
    11  C   -0.037896
    12  C   -0.093790
    13  C   -0.008590
    14  C   -0.117833
    15  C   -0.349872
    16  H    0.181573
    17  H    0.214108
    18  C   -0.232792
    19  C   -0.356434
    20  H    0.201291
    21  C   -0.224577
    22  H    0.191531
    23  H    0.170918
    24  H    0.170425
    25  H    0.175117
    26  H    0.137136
    27  H    0.169186
    28  H    0.171147
    29  H    0.131629
    30  H    0.174314
    31  C   -0.363401
    32  H    0.173744
    33  H    0.175496
    34  C   -0.363011
    35  H    0.168539
    36  H    0.217552
    37  C   -0.364553
    38  H    0.216643
    39  H    0.165487
    40  C   -0.371807
    41  H    0.179594
    42  H    0.174271
    43  C   -0.426236
    44  H    0.138407
    45  H    0.139044
    46  H    0.154963
    47  C   -0.428352
    48  H    0.139073
    49  H    0.139043
    50  H    0.155147
    51  C   -0.435961
    52  H    0.153974
    53  H    0.118654
    54  H    0.152624
    55  C   -0.226036
    56  H    0.127920
    57  H    0.127884
    58  C    0.021547
    59  C    0.044211
    60  C   -0.233668
    61  H    0.129209
    62  H    0.129544
    63  C    0.029529
    64  C   -0.226614
    65  H    0.126128
    66  H    0.129881
    67  C    0.043737
    68  C   -0.237250
    69  H    0.130585
    70  H    0.129514
 Sum of Mulliken charges =   1.00000

 Dipole moment (field-independent basis, Debye):
    X=              0.0062    Y=              1.0810    Z=             -0.7068  Tot=              1.2915
 Quadrupole moment (field-independent basis, Debye-Ang):
   XX=           -167.9827   YY=           -163.1546   ZZ=           -185.6715
   XY=             -0.3528   XZ=             -0.1717   YZ=             -0.7031

 Summary of Natural Population Analysis:

                                       Natural Population
                Natural  -----------------------------------------------
    Atom  No    Charge         Core      Valence    Rydberg      Total
 -----------------------------------------------------------------------
      P    1    1.09985      9.99676     3.85533    0.04806    13.90015
      P    2    1.10335      9.99674     3.85171    0.04820    13.89665
      C    3   -1.00277      1.99944     4.98583    0.01750     7.00277
      C    4   -0.62325      1.99936     4.61576    0.00812     6.62325
      H    5    0.26243      0.00000     0.73567    0.00190     0.73757
      H    6    0.25129      0.00000     0.74645    0.00227     0.74871
      H    7    0.22309      0.00000     0.77556    0.00134     0.77691
      H    8    0.21471      0.00000     0.78345    0.00184     0.78529
      H    9    0.21884      0.00000     0.77941    0.00175     0.78116
     Rh   10   -0.41719     35.98605     9.40640    0.02474    45.41719
      C   11   -0.16005      1.99907     4.14114    0.01984     6.16005
      C   12   -0.17172      1.99908     4.15209    0.02055     6.17172
      C   13   -0.18449      1.99907     4.16522    0.02020     6.18449
      C   14   -0.15005      1.99908     4.13068    0.02030     6.15005
      C   15   -0.42531      1.99936     4.41386    0.01209     6.42531
      H   16    0.22097      0.00000     0.77713    0.00190     0.77903
      H   17    0.23270      0.00000     0.76507    0.00223     0.76730
      C   18   -0.42002      1.99935     4.40773    0.01294     6.42002
      C   19   -0.42418      1.99936     4.41277    0.01205     6.42418
      H   20    0.23067      0.00000     0.76722    0.00211     0.76933
      C   21   -0.41826      1.99935     4.40610    0.01281     6.41826
      H   22    0.22044      0.00000     0.77764    0.00192     0.77956
      H   23    0.22959      0.00000     0.76901    0.00140     0.77041
      H   24    0.21636      0.00000     0.78173    0.00191     0.78364
      H   25    0.23570      0.00000     0.76247    0.00182     0.76430
      H   26    0.21563      0.00000     0.78245    0.00192     0.78437
      H   27    0.21592      0.00000     0.78216    0.00192     0.78408
      H   28    0.22975      0.00000     0.76880    0.00145     0.77025
      H   29    0.21590      0.00000     0.78254    0.00156     0.78410
      H   30    0.23511      0.00000     0.76309    0.00180     0.76489
      C   31   -0.69237      1.99929     4.67943    0.01365     6.69237
      H   32    0.23750      0.00000     0.76032    0.00218     0.76250
      H   33    0.24288      0.00000     0.75526    0.00186     0.75712
      C   34   -0.70250      1.99929     4.68731    0.01590     6.70250
      H   35    0.22909      0.00000     0.76781    0.00310     0.77091
      H   36    0.25279      0.00000     0.74434    0.00287     0.74721
      C   37   -0.70098      1.99929     4.68579    0.01590     6.70098
      H   38    0.25173      0.00000     0.74542    0.00285     0.74827
      H   39    0.22910      0.00000     0.76780    0.00310     0.77090
      C   40   -0.69501      1.99929     4.68215    0.01357     6.69501
      H   41    0.24389      0.00000     0.75430    0.00181     0.75611
      H   42    0.23673      0.00000     0.76107    0.00220     0.76327
      C   43   -0.62757      1.99937     4.62078    0.00742     6.62757
      H   44    0.20487      0.00000     0.79326    0.00187     0.79513
      H   45    0.21308      0.00000     0.78523    0.00169     0.78692
      H   46    0.22995      0.00000     0.76876    0.00129     0.77005
      C   47   -0.62783      1.99937     4.62103    0.00742     6.62783
      H   48    0.21314      0.00000     0.78516    0.00169     0.78686
      H   49    0.20495      0.00000     0.79318    0.00187     0.79505
      H   50    0.23002      0.00000     0.76869    0.00129     0.76998
      C   51   -0.62574      1.99937     4.61814    0.00823     6.62574
      H   52    0.22002      0.00000     0.77828    0.00171     0.77998
      H   53    0.21267      0.00000     0.78544    0.00189     0.78733
      H   54    0.22353      0.00000     0.77512    0.00135     0.77647
      C   55   -0.37018      1.99902     4.36097    0.01019     6.37018
      H   56    0.20481      0.00000     0.79357    0.00161     0.79519
      H   57    0.19732      0.00000     0.80073    0.00196     0.80268
      C   58   -0.00303      1.99914     3.98665    0.01723     6.00303
      C   59   -0.01058      1.99913     3.99511    0.01634     6.01058
      C   60   -0.35978      1.99903     4.35041    0.01034     6.35978
      H   61    0.19463      0.00000     0.80362    0.00175     0.80537
      H   62    0.20672      0.00000     0.79158    0.00170     0.79328
      C   63   -0.00395      1.99914     3.98758    0.01723     6.00395
      C   64   -0.36814      1.99903     4.35890    0.01021     6.36814
      H   65    0.20455      0.00000     0.79385    0.00160     0.79545
      H   66    0.19742      0.00000     0.80066    0.00192     0.80258
      C   67   -0.01042      1.99913     3.99490    0.01639     6.01042
      C   68   -0.35992      1.99903     4.35056    0.01033     6.35992
      H   69    0.19500      0.00000     0.80326    0.00175     0.80500
      H   70    0.20659      0.00000     0.79171    0.00170     0.79341
 =======================================================================
   * Total *    1.00000    105.96000   159.49261    0.54739   266.00000

 Normal termination of Gaussian 16 at Tue Jan 21 10:19:58 2025.
