 Gaussian 16, Revision B.01,
 Gaussian 16:  ES64L-G16RevB.01 20-Dec-2017

 ------------------------------------------
 # nmr=giao b3lyp/genecp pop=nbo scfcyc=200
 ------------------------------------------

 ---------
 MB-22_SPE
 ---------
 Symbolic Z-matrix:
 Charge =  1 Multiplicity = 1

                         Standard orientation:
 ---------------------------------------------------------------------
 Center     Atomic      Atomic             Coordinates (Angstroms)
 Number     Number       Type             X           Y           Z
 ---------------------------------------------------------------------
      1         15           0        0.838972   -1.518019    1.432920
      2         15           0       -1.121851    0.069117    0.265250
      3          6           0        1.837902   -1.549858    3.002220
      4          1           0        1.351173   -2.234659    3.699560
      5          1           0        2.797183   -2.000916    2.732660
      6          6           0        0.638785   -3.304570    0.951070
      7          1           0        1.621746   -3.634398    0.604370
      8          1           0       -0.008035   -3.300501    0.071130
      9          6           0       -0.874489   -0.892602    1.857260
     10          1           0       -0.815020   -0.201022    2.697570
     11          1           0       -1.632148   -1.644774    2.074820
     12          6           0       -2.048123    1.610926    0.661850
     13          6           0       -3.114204    2.040954   -0.132620
     14          1           0       -3.460873    1.435343   -0.959340
     15          6           0       -3.747836    3.249343    0.142210
     16          1           0       -4.576767    3.570391   -0.475910
     17          6           0       -3.323437    4.037953    1.205210
     18          1           0       -3.820999    4.975353    1.418790
     19          6           0       -2.253357    3.621215    1.992500
     20          1           0       -1.915408    4.233986    2.818730
     21          6           0       -1.612505    2.419776    1.717990
     22          1           0       -0.768494    2.122278    2.329010
     23          6           0       -2.250349   -0.972165   -0.745870
     24          6           0       -1.849128   -1.397894   -2.013950
     25          1           0       -0.879649   -1.105272   -2.397030
     26          6           0       -2.686577   -2.203015   -2.781480
     27          1           0       -2.368886   -2.527955   -3.764210
     28          6           0       -3.926466   -2.588568   -2.285940
     29          1           0       -4.578065   -3.214389   -2.882600
     30          6           0       -4.332417   -2.169338   -1.020510
     31          1           0       -5.298616   -2.467890   -0.633670
     32          6           0       -3.500308   -1.365457   -0.252260
     33          1           0       -3.832929   -1.037857    0.725620
     34         45           0        1.171249    0.062131   -0.287500
     35          6           0        3.435129    0.369445   -0.188260
     36          6           0        3.155761   -0.615455   -1.111780
     37          6           0        1.232257    1.293951   -2.210380
     38          6           0        1.310026    2.144871   -1.127680
     39          6           0        3.783476    1.810636   -0.511370
     40          1           0        3.694720    0.041776    0.812130
     41          1           0        3.242552   -1.645275   -0.778770
     42          6           0        3.063760   -0.454716   -2.608990
     43          6           0        2.398128    0.857733   -3.077840
     44          1           0        0.248038    1.146350   -2.642120
     45          6           0        2.560795    2.752564   -0.542380
     46          1           0        0.389615    2.620320   -0.804780
     47          1           0        4.481206    2.175807    0.244010
     48          1           0        4.320766    1.852617   -1.458460
     49          1           0        4.064671   -0.540734   -3.050120
     50          1           0        2.495692   -1.302757   -2.998000
     51          1           0        3.134777    1.658835   -3.132620
     52          1           0        2.037488    0.714513   -4.097700
     53          1           0        2.327934    3.070313    0.476220
     54          1           0        2.813523    3.669504   -1.089470
     55          6           0        0.095687   -4.253991    2.021140
     56          1           0       -0.042611   -5.248481    1.593410
     57          1           0        0.777957   -4.355600    2.865340
     58          1           0       -0.873144   -3.929312    2.404960
     59          6           0        2.053020   -0.183417    3.654100
     60          1           0        2.512079    0.527493    2.966010
     61          1           0        1.115999    0.248701    4.009400
     62          1           0        2.708280   -0.284086    4.520550
 ---------------------------------------------------------------------

 SCF Done:  E(RB3LYP) =  -1766.67923000     A.U. after   16 cycles

      1  P    Isotropic =   315.0467   Anisotropy =    80.4870

      2  P    Isotropic =   317.8187   Anisotropy =   109.0096

      3  C    Isotropic =   162.0400   Anisotropy =    16.4927

      4  H    Isotropic =    29.7856   Anisotropy =     8.7067

      5  H    Isotropic =    30.6031   Anisotropy =     8.5200

      6  C    Isotropic =   156.9828   Anisotropy =    24.7456

      7  H    Isotropic =    30.2704   Anisotropy =     6.8459

      8  H    Isotropic =    30.4740   Anisotropy =     8.0745

      9  C    Isotropic =   139.4359   Anisotropy =    57.5765

     10  H    Isotropic =    28.0994   Anisotropy =     3.6656

     11  H    Isotropic =    28.7226   Anisotropy =     9.4862

     12  C    Isotropic =    43.9976   Anisotropy =   166.4636

     13  C    Isotropic =    47.2002   Anisotropy =   190.9685

     14  H    Isotropic =    25.0623   Anisotropy =    12.5677

     15  C    Isotropic =    48.5596   Anisotropy =   190.4794

     16  H    Isotropic =    24.3424   Anisotropy =     6.4161

     17  C    Isotropic =    46.1593   Anisotropy =   196.6732

     18  H    Isotropic =    24.0782   Anisotropy =     3.8679

     19  C    Isotropic =    48.7459   Anisotropy =   190.0828

     20  H    Isotropic =    23.9983   Anisotropy =     6.5240

     21  C    Isotropic =    49.8791   Anisotropy =   185.3301

     22  H    Isotropic =    24.0120   Anisotropy =    10.2756

     23  C    Isotropic =    46.7287   Anisotropy =   173.1860

     24  C    Isotropic =    41.3802   Anisotropy =   179.5311

     25  H    Isotropic =    23.4357   Anisotropy =    10.0662

     26  C    Isotropic =    49.0861   Anisotropy =   188.4796

     27  H    Isotropic =    24.0051   Anisotropy =     6.6682

     28  C    Isotropic =    44.0322   Anisotropy =   199.5550

     29  H    Isotropic =    23.8597   Anisotropy =     3.9031

     30  C    Isotropic =    47.3236   Anisotropy =   192.0680

     31  H    Isotropic =    24.0088   Anisotropy =     5.6782

     32  C    Isotropic =    46.1839   Anisotropy =   188.9879

     33  H    Isotropic =    24.3115   Anisotropy =    11.2608

     34  Rh   Isotropic =  -306.0190   Anisotropy =   347.0889

     35  C    Isotropic =    77.7161   Anisotropy =   123.1499

     36  C    Isotropic =    76.9114   Anisotropy =   115.9186

     37  C    Isotropic =    80.7623   Anisotropy =   118.1094

     38  C    Isotropic =    72.1407   Anisotropy =   123.6695

     39  C    Isotropic =   153.6162   Anisotropy =    25.2264

     40  H    Isotropic =    26.9443   Anisotropy =     6.6231

     41  H    Isotropic =    26.4974   Anisotropy =     5.5738

     42  C    Isotropic =   147.5348   Anisotropy =    29.4127

     43  C    Isotropic =   154.2669   Anisotropy =    24.3167

     44  H    Isotropic =    27.0840   Anisotropy =     6.6715

     45  C    Isotropic =   148.0645   Anisotropy =    29.2050

     46  H    Isotropic =    27.0515   Anisotropy =     4.0745

     47  H    Isotropic =    29.8086   Anisotropy =    11.3438

     48  H    Isotropic =    29.7475   Anisotropy =     9.3821

     49  H    Isotropic =    29.0209   Anisotropy =    12.6520

     50  H    Isotropic =    29.0625   Anisotropy =     8.2368

     51  H    Isotropic =    29.8061   Anisotropy =     9.3579

     52  H    Isotropic =    29.8024   Anisotropy =    11.6134

     53  H    Isotropic =    29.1647   Anisotropy =     7.3696

     54  H    Isotropic =    29.2717   Anisotropy =    12.1546

     55  C    Isotropic =   177.9146   Anisotropy =    16.6616

     56  H    Isotropic =    30.7846   Anisotropy =    12.5533

     57  H    Isotropic =    31.0716   Anisotropy =    10.2162

     58  H    Isotropic =    31.2507   Anisotropy =     7.0636

     59  C    Isotropic =   174.5698   Anisotropy =    18.3478

     60  H    Isotropic =    30.3576   Anisotropy =     6.8124

     61  H    Isotropic =    30.5597   Anisotropy =     7.8779

     62  H    Isotropic =    30.1369   Anisotropy =    12.9590

 The electronic state is 1-A.
 Alpha  occ. eigenvalues --  -77.24399 -77.23652 -10.30779 -10.30240 -10.30112
 Alpha  occ. eigenvalues --  -10.30048 -10.29853 -10.29721 -10.29579 -10.29459
 Alpha  occ. eigenvalues --  -10.29175 -10.29096 -10.29081 -10.28872 -10.28543
 Alpha  occ. eigenvalues --  -10.28364 -10.28289 -10.28249 -10.28021 -10.27981
 Alpha  occ. eigenvalues --  -10.27904 -10.27829 -10.27775 -10.27773 -10.27735
 Alpha  occ. eigenvalues --  -10.27703 -10.27415  -6.70379  -6.69713  -4.86662
 Alpha  occ. eigenvalues --   -4.86603  -4.86277  -4.86011  -4.85901  -4.85611
 Alpha  occ. eigenvalues --   -3.32058  -2.08965  -2.08278  -2.05512  -0.97415
 Alpha  occ. eigenvalues --   -0.96633  -0.94920  -0.91597  -0.89665  -0.88711
 Alpha  occ. eigenvalues --   -0.88468  -0.87448  -0.86023  -0.85817  -0.85424
 Alpha  occ. eigenvalues --   -0.84512  -0.80812  -0.78296  -0.77231  -0.74697
 Alpha  occ. eigenvalues --   -0.73726  -0.71905  -0.71513  -0.71035  -0.70804
 Alpha  occ. eigenvalues --   -0.67511  -0.66340  -0.65993  -0.63122  -0.62932
 Alpha  occ. eigenvalues --   -0.61608  -0.60510  -0.58048  -0.57874  -0.57205
 Alpha  occ. eigenvalues --   -0.56949  -0.56732  -0.56577  -0.56310  -0.56035
 Alpha  occ. eigenvalues --   -0.55734  -0.54452  -0.54084  -0.53557  -0.53416
 Alpha  occ. eigenvalues --   -0.53083  -0.53061  -0.53024  -0.51403  -0.50938
 Alpha  occ. eigenvalues --   -0.49936  -0.49525  -0.49050  -0.48506  -0.48159
 Alpha  occ. eigenvalues --   -0.48112  -0.47998  -0.47038  -0.46636  -0.46439
 Alpha  occ. eigenvalues --   -0.46423  -0.45845  -0.45515  -0.44336  -0.44039
 Alpha  occ. eigenvalues --   -0.43834  -0.43595  -0.43452  -0.42850  -0.41584
 Alpha  occ. eigenvalues --   -0.38413  -0.37191  -0.36934  -0.36876  -0.36279
 Alpha  occ. eigenvalues --   -0.36052  -0.35209  -0.34970  -0.34304  -0.31292
 Alpha virt. eigenvalues --   -0.16866  -0.15109  -0.14144  -0.12677  -0.12200
 Alpha virt. eigenvalues --   -0.11335  -0.09881  -0.08923  -0.07914  -0.07840
 Alpha virt. eigenvalues --   -0.06890  -0.06539  -0.05976  -0.05335  -0.04843

 Mulliken charges:
               1
     1  P    0.382155
     2  P    0.320588
     3  C   -0.307820
     4  H    0.171877
     5  H    0.160054
     6  C   -0.275038
     7  H    0.154537
     8  H    0.161349
     9  C   -0.590310
    10  H    0.203158
    11  H    0.209040
    12  C   -0.151937
    13  C   -0.066201
    14  H    0.161205
    15  C   -0.099216
    16  H    0.137474
    17  C   -0.096011
    18  H    0.141968
    19  C   -0.105416
    20  H    0.133480
    21  C   -0.080459
    22  H    0.135084
    23  C   -0.251379
    24  C   -0.032158
    25  H    0.149306
    26  C   -0.110529
    27  H    0.133803
    28  C   -0.094260
    29  H    0.143799
    30  C   -0.082696
    31  H    0.139940
    32  C   -0.093928
    33  H    0.152409
    34  Rh  -0.475166
    35  C   -0.025763
    36  C   -0.092088
    37  C   -0.020688
    38  C   -0.093921
    39  C   -0.345590
    40  H    0.175347
    41  H    0.169189
    42  C   -0.212038
    43  C   -0.357077
    44  H    0.180039
    45  C   -0.231982
    46  H    0.212170
    47  H    0.168985
    48  H    0.167634
    49  H    0.173594
    50  H    0.130768
    51  H    0.167944
    52  H    0.169816
    53  H    0.129759
    54  H    0.173713
    55  C   -0.384079
    56  H    0.159275
    57  H    0.142347
    58  H    0.127739
    59  C   -0.382816
    60  H    0.126000
    61  H    0.125989
    62  H    0.167033
 Sum of Mulliken charges =   1.00000

 Dipole moment (field-independent basis, Debye):
    X=              0.3354    Y=             -1.5422    Z=              1.3130  Tot=              2.0530
 Quadrupole moment (field-independent basis, Debye-Ang):
   XX=           -153.3280   YY=           -161.5292   ZZ=           -166.4717
   XY=              0.2125   XZ=              2.9541   YZ=              1.1904

 Summary of Natural Population Analysis:

                                       Natural Population
                Natural  -----------------------------------------------
    Atom  No    Charge         Core      Valence    Rydberg      Total
 -----------------------------------------------------------------------
      P    1    1.10500      9.99678     3.85047    0.04775    13.89500
      P    2    1.12768      9.99644     3.82412    0.05175    13.87232
      C    3   -0.67554      1.99941     4.66283    0.01330     6.67554
      H    4    0.23396      0.00000     0.76398    0.00206     0.76604
      H    5    0.23274      0.00000     0.76580    0.00145     0.76726
      C    6   -0.66860      1.99941     4.65662    0.01257     6.66860
      H    7    0.23216      0.00000     0.76642    0.00141     0.76784
      H    8    0.23935      0.00000     0.75917    0.00148     0.76065
      C    9   -0.98153      1.99943     4.96410    0.01799     6.98153
      H   10    0.25814      0.00000     0.74002    0.00185     0.74186
      H   11    0.25414      0.00000     0.74366    0.00220     0.74586
      C   12   -0.34402      1.99900     4.32126    0.02376     6.34402
      C   13   -0.19371      1.99910     4.17934    0.01528     6.19371
      H   14    0.22356      0.00000     0.77469    0.00175     0.77644
      C   15   -0.18774      1.99920     4.17386    0.01469     6.18774
      H   16    0.22400      0.00000     0.77479    0.00121     0.77600
      C   17   -0.17891      1.99921     4.16502    0.01469     6.17891
      H   18    0.22424      0.00000     0.77460    0.00116     0.77576
      C   19   -0.19056      1.99920     4.17662    0.01474     6.19056
      H   20    0.22236      0.00000     0.77641    0.00123     0.77764
      C   21   -0.19890      1.99909     4.18442    0.01538     6.19890
      H   22    0.20745      0.00000     0.79032    0.00223     0.79255
      C   23   -0.35234      1.99900     4.32872    0.02462     6.35234
      C   24   -0.18481      1.99910     4.16998    0.01574     6.18481
      H   25    0.22115      0.00000     0.77690    0.00194     0.77885
      C   26   -0.19651      1.99920     4.18269    0.01462     6.19651
      H   27    0.22305      0.00000     0.77573    0.00122     0.77695
      C   28   -0.17280      1.99921     4.15906    0.01454     6.17280
      H   29    0.22478      0.00000     0.77406    0.00116     0.77522
      C   30   -0.19148      1.99920     4.17766    0.01462     6.19148
      H   31    0.22498      0.00000     0.77379    0.00123     0.77502
      C   32   -0.19279      1.99909     4.17760    0.01610     6.19279
      H   33    0.21740      0.00000     0.78055    0.00205     0.78260
     Rh   34   -0.42493     35.98585     9.41190    0.02718    45.42493
      C   35   -0.16634      1.99906     4.14727    0.02000     6.16634
      C   36   -0.16000      1.99907     4.14075    0.02018     6.16000
      C   37   -0.18453      1.99907     4.16558    0.01989     6.18453
      C   38   -0.14997      1.99907     4.13077    0.02013     6.14997
      C   39   -0.42530      1.99936     4.41391    0.01203     6.42530
      H   40    0.22104      0.00000     0.77694    0.00202     0.77896
      H   41    0.22296      0.00000     0.77514    0.00190     0.77704
      C   42   -0.42104      1.99936     4.40919    0.01249     6.42104
      C   43   -0.42384      1.99936     4.41264    0.01184     6.42384
      H   44    0.22752      0.00000     0.77078    0.00170     0.77248
      C   45   -0.42057      1.99936     4.40882    0.01240     6.42057
      H   46    0.23223      0.00000     0.76585    0.00192     0.76777
      H   47    0.22866      0.00000     0.76994    0.00141     0.77134
      H   48    0.21572      0.00000     0.78236    0.00192     0.78428
      H   49    0.23532      0.00000     0.76290    0.00179     0.76468
      H   50    0.21826      0.00000     0.78019    0.00155     0.78174
      H   51    0.21521      0.00000     0.78287    0.00192     0.78479
      H   52    0.22874      0.00000     0.76986    0.00140     0.77126
      H   53    0.21885      0.00000     0.77959    0.00156     0.78115
      H   54    0.23496      0.00000     0.76323    0.00182     0.76504
      C   55   -0.59991      1.99946     4.59250    0.00796     6.59991
      H   56    0.22944      0.00000     0.76937    0.00120     0.77056
      H   57    0.20816      0.00000     0.79038    0.00146     0.79184
      H   58    0.20400      0.00000     0.79434    0.00166     0.79600
      C   59   -0.59168      1.99945     4.58511    0.00712     6.59168
      H   60    0.21066      0.00000     0.78788    0.00146     0.78934
      H   61    0.20176      0.00000     0.79679    0.00145     0.79824
      H   62    0.22873      0.00000     0.77007    0.00119     0.77127
 =======================================================================
   * Total *    1.00000    105.95953   151.47218    0.56829   258.00000

 Normal termination of Gaussian 16 at Tue Jan 21 10:17:44 2025.
