 Gaussian 16, Revision B.01,
 Gaussian 16:  ES64L-G16RevB.01 20-Dec-2017

 ------------------------------------------
 # nmr=giao b3lyp/genecp pop=nbo scfcyc=200
 ------------------------------------------

 ---------
 MB-27_SPE
 ---------
 Symbolic Z-matrix:
 Charge =  1 Multiplicity = 1

                         Standard orientation:
 ---------------------------------------------------------------------
 Center     Atomic      Atomic             Coordinates (Angstroms)
 Number     Number       Type             X           Y           Z
 ---------------------------------------------------------------------
      1         15           0       -1.364180   -0.874202   -0.019410
      2         15           0        1.364590   -0.873768    0.016990
      3          6           0       -2.451950   -1.332293   -1.536510
      4          6           0        2.510590   -1.356026   -1.448900
      5          6           0        0.000431   -2.152070   -0.003540
      6          1           0        0.012882   -2.785060   -0.891630
      7          1           0       -0.011798   -2.790080    0.880910
      8          6           0        2.448560   -1.333686    1.536230
      9          6           0       -2.506270   -1.358863    1.448710
     10         45           0       -0.000163    0.995280   -0.000780
     11          6           0       -1.450136    2.695458   -0.614060
     12          6           0       -1.499885    2.549228    0.753950
     13          6           0        1.449214    2.694872    0.616330
     14          6           0        1.499025    2.551442   -0.751960
     15          6           0       -0.686097    3.763849   -1.370840
     16          1           0       -2.204005    2.165987   -1.187610
     17          1           0       -2.313994    1.953197    1.154910
     18          6           0       -0.741496    3.339269    1.788190
     19          6           0        0.684673    3.761351    1.375270
     20          1           0        2.203225    2.164493    1.188850
     21          6           0        0.740314    3.343321   -1.784570
     22          1           0        2.313316    1.956454   -1.154140
     23          1           0       -1.245337    4.002969   -2.276060
     24          1           0       -0.659918    4.678969   -0.780970
     25          1           0       -1.326508    4.227048    2.058160
     26          1           0       -0.689976    2.734989    2.696090
     27          1           0        0.658012    4.677621    0.787220
     28          1           0        1.243833    3.998932    2.280960
     29          1           0        0.689114    2.740931   -2.693740
     30          1           0        1.324902    4.231942   -2.052660
     31          9           0       -2.927788   -2.621814    1.382140
     32          9           0       -3.567411   -0.544315    1.482360
     33          9           0       -1.806220   -1.203962    2.582730
     34          9           0        1.686920   -1.218347    2.634720
     35          9           0        2.920912   -2.579166    1.478810
     36          9           0        3.474639   -0.480675    1.630690
     37          9           0        3.568449   -0.537165   -1.482180
     38          9           0        2.937222   -2.617095   -1.380270
     39          9           0        1.811350   -1.205267   -2.584010
     40          9           0       -1.691370   -1.220922   -2.636180
     41          9           0       -2.928868   -2.575874   -1.477020
     42          9           0       -3.474991   -0.475575   -1.630540
 ---------------------------------------------------------------------

 SCF Done:  E(RB3LYP) =  -2495.72874804     A.U. after   15 cycles

      1  P    Isotropic =   294.7971   Anisotropy =   111.8119

      2  P    Isotropic =   294.8421   Anisotropy =   111.7558

      3  C    Isotropic =    47.0692   Anisotropy =     4.8313

      4  C    Isotropic =    46.8696   Anisotropy =     4.8347

      5  C    Isotropic =   139.3721   Anisotropy =    48.6522

      6  H    Isotropic =    28.0718   Anisotropy =     7.6191

      7  H    Isotropic =    28.0755   Anisotropy =     7.6522

      8  C    Isotropic =    47.0685   Anisotropy =     4.8380

      9  C    Isotropic =    46.8712   Anisotropy =     4.8444

     10  Rh   Isotropic =  -326.7253   Anisotropy =   418.7054

     11  C    Isotropic =    64.5721   Anisotropy =   143.2963

     12  C    Isotropic =    64.5415   Anisotropy =   135.8617

     13  C    Isotropic =    64.5273   Anisotropy =   143.3620

     14  C    Isotropic =    64.5576   Anisotropy =   135.8425

     15  C    Isotropic =   154.3744   Anisotropy =    25.3035

     16  H    Isotropic =    26.2823   Anisotropy =     6.3657

     17  H    Isotropic =    25.6273   Anisotropy =     3.9510

     18  C    Isotropic =   147.8106   Anisotropy =    29.1266

     19  C    Isotropic =   154.3686   Anisotropy =    25.3125

     20  H    Isotropic =    26.2802   Anisotropy =     6.3645

     21  C    Isotropic =   147.8282   Anisotropy =    29.1127

     22  H    Isotropic =    25.6278   Anisotropy =     3.9505

     23  H    Isotropic =    29.7175   Anisotropy =    11.4459

     24  H    Isotropic =    29.5477   Anisotropy =     8.7050

     25  H    Isotropic =    28.9539   Anisotropy =    12.1188

     26  H    Isotropic =    28.9729   Anisotropy =     7.3483

     27  H    Isotropic =    29.5473   Anisotropy =     8.7047

     28  H    Isotropic =    29.7172   Anisotropy =    11.4442

     29  H    Isotropic =    28.9735   Anisotropy =     7.3549

     30  H    Isotropic =    28.9540   Anisotropy =    12.1189

     31  F    Isotropic =   223.2347   Anisotropy =   129.0888

     32  F    Isotropic =   224.6929   Anisotropy =   129.0948

     33  F    Isotropic =   220.9321   Anisotropy =   134.5650

     34  F    Isotropic =   221.6178   Anisotropy =   134.1606

     35  F    Isotropic =   223.1357   Anisotropy =   128.9938

     36  F    Isotropic =   224.2997   Anisotropy =   130.2569

     37  F    Isotropic =   224.6716   Anisotropy =   129.1835

     38  F    Isotropic =   223.2053   Anisotropy =   129.0245

     39  F    Isotropic =   221.0253   Anisotropy =   134.5323

     40  F    Isotropic =   221.7088   Anisotropy =   134.1268

     41  F    Isotropic =   223.1001   Anisotropy =   128.9362

     42  F    Isotropic =   224.2848   Anisotropy =   130.3342

 The electronic state is 1-A.
 Alpha  occ. eigenvalues --  -77.32014 -77.32013 -24.86874 -24.86872 -24.86836
 Alpha  occ. eigenvalues --  -24.86834 -24.86815 -24.86815 -24.86815 -24.86813
 Alpha  occ. eigenvalues --  -24.86729 -24.86728 -24.86699 -24.86697 -10.58547
 Alpha  occ. eigenvalues --  -10.58547 -10.58523 -10.58523 -10.38045 -10.34360
 Alpha  occ. eigenvalues --  -10.34358 -10.34200 -10.34198 -10.31746 -10.31745
 Alpha  occ. eigenvalues --  -10.31477 -10.31477  -6.78109  -6.78108  -4.94377
 Alpha  occ. eigenvalues --   -4.94374  -4.94355  -4.94355  -4.93934  -4.93934
 Alpha  occ. eigenvalues --   -3.38367  -2.15542  -2.14620  -2.11545  -1.47307
 Alpha  occ. eigenvalues --   -1.47299  -1.47092  -1.47085  -1.38548  -1.38546
 Alpha  occ. eigenvalues --   -1.38426  -1.38408  -1.38387  -1.38382  -1.38265
 Alpha  occ. eigenvalues --   -1.38252  -0.99240  -0.96964  -0.94240  -0.92447
 Alpha  occ. eigenvalues --   -0.91013  -0.86871  -0.85894  -0.85818  -0.84991
 Alpha  occ. eigenvalues --   -0.82451  -0.81070  -0.79239  -0.75151  -0.75132
 Alpha  occ. eigenvalues --   -0.75109  -0.75056  -0.74945  -0.74883  -0.74808
 Alpha  occ. eigenvalues --   -0.74635  -0.74613  -0.73545  -0.73068  -0.70383
 Alpha  occ. eigenvalues --   -0.69874  -0.66961  -0.65372  -0.64586  -0.62683
 Alpha  occ. eigenvalues --   -0.62678  -0.62433  -0.62388  -0.62343  -0.62019
 Alpha  occ. eigenvalues --   -0.61985  -0.61896  -0.61856  -0.61339  -0.60508
 Alpha  occ. eigenvalues --   -0.59699  -0.59622  -0.59452  -0.59193  -0.58409
 Alpha  occ. eigenvalues --   -0.58237  -0.58105  -0.58028  -0.57905  -0.57319
 Alpha  occ. eigenvalues --   -0.56938  -0.56810  -0.56622  -0.56594  -0.56262
 Alpha  occ. eigenvalues --   -0.56229  -0.53596  -0.52479  -0.52072  -0.51060
 Alpha  occ. eigenvalues --   -0.50843  -0.50795  -0.50477  -0.50047  -0.48569
 Alpha  occ. eigenvalues --   -0.47667  -0.46936  -0.42954  -0.42640  -0.41920
 Alpha  occ. eigenvalues --   -0.41435  -0.40307  -0.37336
 Alpha virt. eigenvalues --   -0.23270  -0.21572  -0.16678  -0.14779  -0.14634
 Alpha virt. eigenvalues --   -0.14064  -0.12645  -0.11830  -0.10227  -0.08940
 Alpha virt. eigenvalues --   -0.08587  -0.08147  -0.06824  -0.06771  -0.06388

 Mulliken charges:
               1
     1  P    0.246367
     2  P    0.246349
     3  C    0.399401
     4  C    0.392987
     5  C   -0.609893
     6  H    0.264442
     7  H    0.264449
     8  C    0.399253
     9  C    0.392831
    10  Rh  -0.490733
    11  C    0.011594
    12  C   -0.095996
    13  C    0.011255
    14  C   -0.095584
    15  C   -0.355035
    16  H    0.202743
    17  H    0.210246
    18  C   -0.227734
    19  C   -0.355032
    20  H    0.202668
    21  C   -0.227738
    22  H    0.210282
    23  H    0.190008
    24  H    0.178577
    25  H    0.196560
    26  H    0.155586
    27  H    0.178582
    28  H    0.190001
    29  H    0.155581
    30  H    0.196567
    31  F   -0.107403
    32  F   -0.124220
    33  F   -0.128220
    34  F   -0.128430
    35  F   -0.107249
    36  F   -0.123788
    37  F   -0.124268
    38  F   -0.107295
    39  F   -0.128267
    40  F   -0.128480
    41  F   -0.107141
    42  F   -0.123822
 Sum of Mulliken charges =   1.00000

 Dipole moment (field-independent basis, Debye):
    X=             -0.0008    Y=              5.2479    Z=             -0.0024  Tot=              5.2479
 Quadrupole moment (field-independent basis, Debye-Ang):
   XX=           -175.1489   YY=           -142.0536   ZZ=           -176.1513
   XY=             -0.0053   XZ=             -0.4676   YZ=              0.0286

 Summary of Natural Population Analysis:

                                       Natural Population
                Natural  -----------------------------------------------
    Atom  No    Charge         Core      Valence    Rydberg      Total
 -----------------------------------------------------------------------
      P    1    0.87902      9.99592     4.07214    0.05291    14.12098
      P    2    0.87896      9.99592     4.07220    0.05291    14.12104
      C    3    0.75228      1.99965     3.18840    0.05968     5.24772
      C    4    0.75169      1.99965     3.18901    0.05965     5.24831
      C    5   -0.97077      1.99942     4.95480    0.01655     6.97077
      H    6    0.29603      0.00000     0.70242    0.00155     0.70397
      H    7    0.29599      0.00000     0.70246    0.00155     0.70401
      C    8    0.75226      1.99965     3.18841    0.05968     5.24774
      C    9    0.75169      1.99965     3.18901    0.05966     5.24831
     Rh   10   -0.46296     35.98536     9.45091    0.02669    45.46296
      C   11   -0.14486      1.99907     4.12467    0.02112     6.14486
      C   12   -0.13587      1.99908     4.11513    0.02167     6.13587
      C   13   -0.14464      1.99907     4.12445    0.02112     6.14464
      C   14   -0.13609      1.99908     4.11535    0.02167     6.13609
      C   15   -0.42915      1.99936     4.41782    0.01197     6.42915
      H   16    0.23989      0.00000     0.75858    0.00153     0.76011
      H   17    0.24026      0.00000     0.75818    0.00156     0.75974
      C   18   -0.43098      1.99935     4.41885    0.01278     6.43098
      C   19   -0.42918      1.99936     4.41785    0.01197     6.42918
      H   20    0.23984      0.00000     0.75863    0.00153     0.76016
      C   21   -0.43097      1.99935     4.41884    0.01278     6.43097
      H   22    0.24032      0.00000     0.75812    0.00155     0.75968
      H   23    0.24216      0.00000     0.75647    0.00136     0.75784
      H   24    0.21965      0.00000     0.77840    0.00196     0.78035
      H   25    0.25064      0.00000     0.74770    0.00166     0.74936
      H   26    0.23108      0.00000     0.76741    0.00151     0.76892
      H   27    0.21965      0.00000     0.77839    0.00196     0.78035
      H   28    0.24217      0.00000     0.75647    0.00136     0.75783
      H   29    0.23106      0.00000     0.76743    0.00151     0.76894
      H   30    0.25064      0.00000     0.74770    0.00166     0.74936
      F   31   -0.28450      1.99992     7.27508    0.00950     9.28450
      F   32   -0.29265      1.99992     7.28343    0.00930     9.29265
      F   33   -0.29559      1.99992     7.28660    0.00907     9.29559
      F   34   -0.29562      1.99992     7.28658    0.00911     9.29562
      F   35   -0.28468      1.99992     7.27527    0.00949     9.28468
      F   36   -0.29184      1.99992     7.28272    0.00920     9.29184
      F   37   -0.29267      1.99992     7.28346    0.00930     9.29267
      F   38   -0.28444      1.99992     7.27502    0.00950     9.28444
      F   39   -0.29565      1.99992     7.28665    0.00907     9.29565
      F   40   -0.29567      1.99992     7.28664    0.00912     9.29567
      F   41   -0.28462      1.99992     7.27521    0.00949     9.28462
      F   42   -0.29186      1.99992     7.28274    0.00920     9.29186
 =======================================================================
   * Total *    1.00000    105.96797   167.37563    0.65641   274.00000

 Normal termination of Gaussian 16 at Tue Jan 21 10:22:10 2025.
