 Gaussian 16, Revision B.01,
 Gaussian 16:  ES64L-G16RevB.01 20-Dec-2017

 ------------------------------------------
 # nmr=giao b3lyp/genecp pop=nbo scfcyc=200
 ------------------------------------------

 ---------
 MB-39_SPE
 ---------
 Symbolic Z-matrix:
 Charge =  1 Multiplicity = 1

                         Standard orientation:
 ---------------------------------------------------------------------
 Center     Atomic      Atomic             Coordinates (Angstroms)
 Number     Number       Type             X           Y           Z
 ---------------------------------------------------------------------
      1         15           0       -1.253750   -0.588901    0.183410
      2         15           0        1.303611   -1.180430   -0.747300
      3          6           0       -0.070289   -2.043600    0.193420
      4          6           0       -2.187830   -0.588141    1.770740
      5          6           0       -3.554050   -0.293841    1.795570
      6          6           0       -4.230530   -0.214911    3.009030
      7          6           0       -3.552640   -0.424241    4.204510
      8          6           0       -2.189469   -0.706001    4.187040
      9          6           0       -1.507749   -0.779311    2.978670
     10          6           0       -2.477119   -0.977171   -1.133290
     11          6           0       -2.642910   -0.097141   -2.204960
     12          6           0       -3.549940   -0.390391   -3.219900
     13          6           0       -4.293289   -1.563681   -3.170380
     14          6           0       -4.131919   -2.446911   -2.104610
     15          6           0       -3.228959   -2.157551   -1.089870
     16          6           0        2.902721   -1.772320   -0.060840
     17          6           0        3.736031   -2.659120   -0.747830
     18          6           0        4.931501   -3.082350   -0.174530
     19          6           0        5.303091   -2.629859    1.086200
     20          6           0        4.479421   -1.744130    1.775700
     21          6           0        3.290991   -1.310270    1.202490
     22          6           0        1.193411   -1.849740   -2.461950
     23          1           0        0.270151   -2.239130    1.209900
     24          1           0       -0.445249   -2.970991   -0.240200
     25          1           0        0.218591   -1.585290   -2.869760
     26          1           0        1.299711   -2.934830   -2.474680
     27          1           0        1.963601   -1.400080   -3.088160
     28          1           0       -4.097720   -0.137211    0.873230
     29          1           0       -5.290280    0.006749    3.016460
     30          1           0       -4.082470   -0.366711    5.146780
     31          1           0       -1.655989   -0.868001    5.115200
     32          1           0       -0.444129   -0.985061    2.988140
     33          1           0       -2.058130    0.813229   -2.247840
     34          1           0       -3.673950    0.297439   -4.046820
     35          1           0       -4.998839   -1.792111   -3.959210
     36          1           0       -4.711519   -3.360551   -2.064220
     37          1           0       -3.120799   -2.847761   -0.261570
     38          1           0        3.467601   -3.028790   -1.728270
     39          1           0        5.570491   -3.768539   -0.715820
     40          1           0        6.232951   -2.962769    1.529480
     41          1           0        4.767911   -1.384570    2.755430
     42          1           0        2.664500   -0.605170    1.737000
     43         45           0        0.442830    0.974790   -0.324300
     44          6           0        2.371210    2.191770   -0.184520
     45          6           0        1.906440    2.234540   -1.481960
     46          6           0       -0.657090    2.972939   -0.283950
     47          6           0       -0.263210    2.652369    0.998670
     48          6           0        2.220650    3.298030    0.843350
     49          1           0        3.124160    1.444770    0.040090
     50          1           0        2.351370    1.539910   -2.188090
     51          6           0        1.095520    3.335410   -2.119800
     52          6           0        0.031290    3.969900   -1.197520
     53          1           0       -1.673190    2.710979   -0.559780
     54          6           0        0.958920    3.161560    1.722580
     55          1           0       -1.002990    2.187679    1.642290
     56          1           0        3.097070    3.286870    1.493420
     57          1           0        2.232690    4.266090    0.343160
     58          1           0        1.767470    4.114660   -2.500590
     59          1           0        0.602060    2.915590   -2.999270
     60          1           0        0.472209    4.769000   -0.602300
     61          1           0       -0.725130    4.446729   -1.822980
     62          1           0        1.167270    2.472120    2.543580
     63          1           0        0.730100    4.125170    2.194930
 ---------------------------------------------------------------------

 SCF Done:  E(RB3LYP) =  -1879.82084324     A.U. after   16 cycles

      1  P    Isotropic =   315.1635   Anisotropy =   104.9928

      2  P    Isotropic =   333.6490   Anisotropy =    91.9962

      3  C    Isotropic =   125.9229   Anisotropy =    49.4795

      4  C    Isotropic =    44.6746   Anisotropy =   167.1251

      5  C    Isotropic =    47.1974   Anisotropy =   191.0180

      6  C    Isotropic =    48.4358   Anisotropy =   190.6152

      7  C    Isotropic =    46.1771   Anisotropy =   196.2133

      8  C    Isotropic =    48.8816   Anisotropy =   189.6502

      9  C    Isotropic =    50.1038   Anisotropy =   185.7551

     10  C    Isotropic =    45.5789   Anisotropy =   172.0181

     11  C    Isotropic =    41.1337   Anisotropy =   179.3913

     12  C    Isotropic =    49.0864   Anisotropy =   188.1040

     13  C    Isotropic =    44.2434   Anisotropy =   200.3416

     14  C    Isotropic =    47.2879   Anisotropy =   192.5576

     15  C    Isotropic =    46.2374   Anisotropy =   189.0633

     16  C    Isotropic =    45.8625   Anisotropy =   172.5825

     17  C    Isotropic =    50.1672   Anisotropy =   187.2533

     18  C    Isotropic =    48.2136   Anisotropy =   190.8701

     19  C    Isotropic =    45.1301   Anisotropy =   197.4900

     20  C    Isotropic =    48.2498   Anisotropy =   189.7637

     21  C    Isotropic =    46.3606   Anisotropy =   179.9605

     22  C    Isotropic =   170.9504   Anisotropy =    20.6971

     23  H    Isotropic =    27.9183   Anisotropy =     2.5061

     24  H    Isotropic =    28.5663   Anisotropy =     8.6326

     25  H    Isotropic =    30.7387   Anisotropy =     8.8252

     26  H    Isotropic =    30.1896   Anisotropy =    11.2707

     27  H    Isotropic =    30.4722   Anisotropy =     9.8827

     28  H    Isotropic =    25.0482   Anisotropy =    12.5103

     29  H    Isotropic =    24.3275   Anisotropy =     6.4421

     30  H    Isotropic =    24.0739   Anisotropy =     3.8829

     31  H    Isotropic =    23.9958   Anisotropy =     6.4555

     32  H    Isotropic =    23.9319   Anisotropy =    10.5235

     33  H    Isotropic =    23.3412   Anisotropy =    10.1175

     34  H    Isotropic =    23.9477   Anisotropy =     6.6964

     35  H    Isotropic =    23.8164   Anisotropy =     3.8928

     36  H    Isotropic =    23.9958   Anisotropy =     5.7324

     37  H    Isotropic =    24.3664   Anisotropy =    11.4319

     38  H    Isotropic =    24.4216   Anisotropy =    12.1681

     39  H    Isotropic =    24.1146   Anisotropy =     5.7067

     40  H    Isotropic =    23.9850   Anisotropy =     4.3161

     41  H    Isotropic =    23.9227   Anisotropy =     7.1109

     42  H    Isotropic =    23.6037   Anisotropy =    10.4801

     43  Rh   Isotropic =  -309.9408   Anisotropy =   349.2792

     44  C    Isotropic =    75.2727   Anisotropy =   126.0017

     45  C    Isotropic =    77.2119   Anisotropy =   115.1763

     46  C    Isotropic =    80.4594   Anisotropy =   118.5482

     47  C    Isotropic =    71.7896   Anisotropy =   123.9612

     48  C    Isotropic =   153.8865   Anisotropy =    24.9257

     49  H    Isotropic =    27.1534   Anisotropy =     5.6528

     50  H    Isotropic =    26.6927   Anisotropy =     5.4005

     51  C    Isotropic =   147.7871   Anisotropy =    29.4835

     52  C    Isotropic =   154.0955   Anisotropy =    24.5165

     53  H    Isotropic =    26.9911   Anisotropy =     6.6846

     54  C    Isotropic =   147.7611   Anisotropy =    29.5603

     55  H    Isotropic =    26.9373   Anisotropy =     3.8681

     56  H    Isotropic =    29.8428   Anisotropy =    11.2595

     57  H    Isotropic =    29.7505   Anisotropy =     9.4478

     58  H    Isotropic =    29.0493   Anisotropy =    12.6754

     59  H    Isotropic =    29.0280   Anisotropy =     8.4357

     60  H    Isotropic =    29.7645   Anisotropy =     9.3408

     61  H    Isotropic =    29.7674   Anisotropy =    11.6820

     62  H    Isotropic =    29.0700   Anisotropy =     7.4725

     63  H    Isotropic =    29.2190   Anisotropy =    12.1359

 The electronic state is 1-A.
 Alpha  occ. eigenvalues --  -77.24291 -77.24213 -10.30682 -10.30136 -10.30116
 Alpha  occ. eigenvalues --  -10.30056 -10.29487 -10.29450 -10.29314 -10.29305
 Alpha  occ. eigenvalues --  -10.29157 -10.29000 -10.28983 -10.28852 -10.28835
 Alpha  occ. eigenvalues --  -10.28804 -10.28484 -10.28274 -10.28192 -10.28166
 Alpha  occ. eigenvalues --  -10.28055 -10.27958 -10.27907 -10.27903 -10.27887
 Alpha  occ. eigenvalues --  -10.27861 -10.27765 -10.27707 -10.27638 -10.27621
 Alpha  occ. eigenvalues --   -6.70276  -6.70218  -4.86559  -4.86501  -4.86499
 Alpha  occ. eigenvalues --   -4.86444  -4.86173  -4.86112  -3.32046  -2.08954
 Alpha  occ. eigenvalues --   -2.08264  -2.05504  -0.97338  -0.96933  -0.96558
 Alpha  occ. eigenvalues --   -0.94799  -0.90367  -0.89542  -0.88354  -0.87760
 Alpha  occ. eigenvalues --   -0.85929  -0.85794  -0.85711  -0.85356  -0.84779
 Alpha  occ. eigenvalues --   -0.82681  -0.80692  -0.78174  -0.75270  -0.72704
 Alpha  occ. eigenvalues --   -0.71798  -0.71490  -0.71391  -0.70923  -0.70729
 Alpha  occ. eigenvalues --   -0.67507  -0.67140  -0.66193  -0.63055  -0.62916
 Alpha  occ. eigenvalues --   -0.62381  -0.61236  -0.60394  -0.57518  -0.57402
 Alpha  occ. eigenvalues --   -0.56812  -0.56647  -0.56576  -0.56437  -0.55977
 Alpha  occ. eigenvalues --   -0.55793  -0.55411  -0.54520  -0.54210  -0.53987
 Alpha  occ. eigenvalues --   -0.53339  -0.53251  -0.52988  -0.52961  -0.52874
 Alpha  occ. eigenvalues --   -0.52320  -0.51110  -0.49822  -0.49051  -0.48601
 Alpha  occ. eigenvalues --   -0.48420  -0.48047  -0.47796  -0.47402  -0.46567
 Alpha  occ. eigenvalues --   -0.46343  -0.45879  -0.45681  -0.45481  -0.45084
 Alpha  occ. eigenvalues --   -0.44240  -0.43975  -0.43649  -0.43535  -0.43091
 Alpha  occ. eigenvalues --   -0.41754  -0.38425  -0.37913  -0.36907  -0.36811
 Alpha  occ. eigenvalues --   -0.36473  -0.36371  -0.36148  -0.35585  -0.35110
 Alpha  occ. eigenvalues --   -0.34955  -0.34323  -0.31279
 Alpha virt. eigenvalues --   -0.16796  -0.15268  -0.14282  -0.13776  -0.12595
 Alpha virt. eigenvalues --   -0.12014  -0.11336  -0.11224  -0.09742  -0.08261
 Alpha virt. eigenvalues --   -0.07748  -0.07099  -0.06403  -0.06101  -0.05583

 Mulliken charges:
               1
     1  P    0.335923
     2  P    0.318005
     3  C   -0.559017
     4  C   -0.142583
     5  C   -0.064329
     6  C   -0.097974
     7  C   -0.097936
     8  C   -0.103129
     9  C   -0.085956
    10  C   -0.263336
    11  C   -0.035671
    12  C   -0.109359
    13  C   -0.093445
    14  C   -0.085079
    15  C   -0.087596
    16  C   -0.138428
    17  C   -0.078488
    18  C   -0.090058
    19  C   -0.094331
    20  C   -0.096498
    21  C   -0.097390
    22  C   -0.472669
    23  H    0.219718
    24  H    0.205121
    25  H    0.186266
    26  H    0.169509
    27  H    0.172204
    28  H    0.160350
    29  H    0.137288
    30  H    0.141860
    31  H    0.133418
    32  H    0.126035
    33  H    0.149707
    34  H    0.133714
    35  H    0.143759
    36  H    0.139903
    37  H    0.152079
    38  H    0.149112
    39  H    0.136863
    40  H    0.142496
    41  H    0.133679
    42  H    0.171208
    43  Rh  -0.535968
    44  C   -0.042530
    45  C   -0.088141
    46  C   -0.010835
    47  C   -0.102955
    48  C   -0.350560
    49  H    0.211814
    50  H    0.172050
    51  C   -0.208788
    52  C   -0.355728
    53  H    0.179936
    54  C   -0.227363
    55  H    0.211992
    56  H    0.169348
    57  H    0.167641
    58  H    0.173396
    59  H    0.131160
    60  H    0.167758
    61  H    0.170032
    62  H    0.129108
    63  H    0.173691
 Sum of Mulliken charges =   1.00000

 Dipole moment (field-independent basis, Debye):
    X=              0.3463    Y=             -1.0323    Z=             -0.6067  Tot=              1.2465
 Quadrupole moment (field-independent basis, Debye-Ang):
   XX=           -157.6097   YY=           -178.6012   ZZ=           -174.2157
   XY=             -1.6659   XZ=              3.8040   YZ=              2.3586

 Summary of Natural Population Analysis:

                                       Natural Population
                Natural  -----------------------------------------------
    Atom  No    Charge         Core      Valence    Rydberg      Total
 -----------------------------------------------------------------------
      P    1    1.12438      9.99644     3.82765    0.05154    13.87562
      P    2    1.11995      9.99666     3.83402    0.04937    13.88005
      C    3   -0.96505      1.99943     4.94830    0.01732     6.96505
      C    4   -0.34313      1.99900     4.32046    0.02367     6.34313
      C    5   -0.19409      1.99910     4.17974    0.01525     6.19409
      C    6   -0.18778      1.99920     4.17389    0.01469     6.18778
      C    7   -0.17919      1.99920     4.16530    0.01468     6.17919
      C    8   -0.19022      1.99920     4.17629    0.01473     6.19022
      C    9   -0.19775      1.99909     4.18331    0.01535     6.19775
      C   10   -0.35235      1.99900     4.32882    0.02453     6.35235
      C   11   -0.18671      1.99909     4.17195    0.01567     6.18671
      C   12   -0.19695      1.99920     4.18311    0.01465     6.19695
      C   13   -0.17291      1.99921     4.15915    0.01454     6.17291
      C   14   -0.19095      1.99920     4.17715    0.01460     6.19095
      C   15   -0.19155      1.99909     4.17632    0.01613     6.19155
      C   16   -0.34578      1.99901     4.32485    0.02192     6.34578
      C   17   -0.19031      1.99910     4.17546    0.01575     6.19031
      C   18   -0.18725      1.99920     4.17340    0.01465     6.18725
      C   19   -0.17570      1.99921     4.16187    0.01463     6.17570
      C   20   -0.19208      1.99920     4.17819    0.01469     6.19208
      C   21   -0.19604      1.99910     4.18177    0.01517     6.19604
      C   22   -0.90277      1.99942     4.89392    0.00943     6.90277
      H   23    0.26162      0.00000     0.73688    0.00150     0.73838
      H   24    0.25438      0.00000     0.74358    0.00204     0.74562
      H   25    0.25132      0.00000     0.74749    0.00119     0.74868
      H   26    0.23792      0.00000     0.76014    0.00194     0.76208
      H   27    0.24475      0.00000     0.75411    0.00114     0.75525
      H   28    0.22310      0.00000     0.77516    0.00174     0.77690
      H   29    0.22393      0.00000     0.77486    0.00121     0.77607
      H   30    0.22413      0.00000     0.77470    0.00116     0.77587
      H   31    0.22231      0.00000     0.77646    0.00123     0.77769
      H   32    0.20668      0.00000     0.79126    0.00206     0.79332
      H   33    0.22109      0.00000     0.77703    0.00188     0.77891
      H   34    0.22303      0.00000     0.77575    0.00122     0.77697
      H   35    0.22472      0.00000     0.77412    0.00116     0.77528
      H   36    0.22503      0.00000     0.77374    0.00123     0.77497
      H   37    0.21787      0.00000     0.78009    0.00204     0.78213
      H   38    0.21305      0.00000     0.78502    0.00194     0.78695
      H   39    0.22433      0.00000     0.77445    0.00122     0.77567
      H   40    0.22451      0.00000     0.77432    0.00117     0.77549
      H   41    0.22199      0.00000     0.77679    0.00123     0.77801
      H   42    0.21524      0.00000     0.78294    0.00182     0.78476
     Rh   43   -0.42864     35.98573     9.41644    0.02648    45.42864
      C   44   -0.16365      1.99906     4.14477    0.01982     6.16365
      C   45   -0.16123      1.99907     4.14211    0.02005     6.16123
      C   46   -0.18274      1.99906     4.16399    0.01968     6.18274
      C   47   -0.14796      1.99907     4.12875    0.02014     6.14796
      C   48   -0.42527      1.99936     4.41399    0.01192     6.42527
      H   49    0.22949      0.00000     0.76828    0.00223     0.77051
      H   50    0.22491      0.00000     0.77336    0.00173     0.77509
      C   51   -0.42108      1.99936     4.40929    0.01244     6.42108
      C   52   -0.42386      1.99936     4.41269    0.01180     6.42386
      H   53    0.22783      0.00000     0.77051    0.00167     0.77217
      C   54   -0.42049      1.99936     4.40876    0.01237     6.42049
      H   55    0.23230      0.00000     0.76583    0.00187     0.76770
      H   56    0.22865      0.00000     0.76995    0.00140     0.77135
      H   57    0.21528      0.00000     0.78280    0.00192     0.78472
      H   58    0.23532      0.00000     0.76290    0.00178     0.76468
      H   59    0.21790      0.00000     0.78057    0.00153     0.78210
      H   60    0.21515      0.00000     0.78293    0.00191     0.78485
      H   61    0.22874      0.00000     0.76987    0.00140     0.77126
      H   62    0.21779      0.00000     0.78065    0.00155     0.78221
      H   63    0.23478      0.00000     0.76340    0.00182     0.76522
 =======================================================================
   * Total *    1.00000    111.95577   161.41563    0.62860   274.00000

 Normal termination of Gaussian 16 at Tue Jan 21 10:47:46 2025.
