 Gaussian 16, Revision B.01,
 Gaussian 16:  ES64L-G16RevB.01 20-Dec-2017

 ------------------------------------------
 # nmr=giao b3lyp/genecp pop=nbo scfcyc=200
 ------------------------------------------

 --------
 MB-3_SPE
 --------
 Symbolic Z-matrix:
 Charge =  1 Multiplicity = 1

                         Standard orientation:
 ---------------------------------------------------------------------
 Center     Atomic      Atomic             Coordinates (Angstroms)
 Number     Number       Type             X           Y           Z
 ---------------------------------------------------------------------
      1          6           0        2.500748    0.016284    0.395589
      2          1           0        2.793028    0.000605    1.449079
      3          1           0        3.386458    0.035646   -0.242451
      4         45           0       -0.565692   -0.005581   -0.084271
      5          6           0       -2.271665    1.458645    0.588549
      6          6           0       -2.175985    1.486586   -0.779361
      7          6           0       -2.299669   -1.479335   -0.592351
      8          6           0       -2.097819   -1.507564    0.764939
      9          6           0       -3.297493    0.688704    1.396899
     10          1           0       -1.712776    2.209426    1.136719
     11          1           0       -1.577126    2.278657   -1.219081
     12          6           0       -2.991343    0.698294   -1.772641
     13          6           0       -3.394391   -0.723617   -1.319991
     14          1           0       -1.779388   -2.228564   -1.180631
     15          6           0       -2.845191   -0.727586    1.816329
     16          1           0       -1.466198   -2.297623    1.158339
     17          1           0       -3.509904    1.256813    2.303759
     18          1           0       -4.235113    0.641452    0.844979
     19          1           0       -3.892224    1.267103   -2.033571
     20          1           0       -2.410583    0.629185   -2.695051
     21          1           0       -4.288951   -0.686858   -0.699961
     22          1           0       -3.667710   -1.294177   -2.208751
     23          1           0       -2.198471   -0.652154    2.692679
     24          1           0       -3.717740   -1.308137    2.140959
     25          6           0        2.261074   -3.540226   -0.848371
     26          6           0        2.419254   -3.511846    0.670989
     27          1           0        1.462666   -4.214138   -1.161521
     28          1           0        3.183985   -3.800425   -1.362521
     29          1           0        2.192836   -4.465336    1.141909
     30          1           0        3.415324   -3.180374    0.972399
     31          6           0        2.028561    3.738003    0.657709
     32          6           0        2.627772    3.338844   -0.690731
     33          1           0        1.219550    4.460442    0.545279
     34          1           0        2.773131    4.123735    1.351019
     35          1           0        2.605791    4.143014   -1.422151
     36          1           0        3.649183    2.964946   -0.588191
     37         15           0        1.245196    1.363002    0.076429
     38         15           0        1.272171   -1.342948    0.031359
     39          8           0        1.901782   -2.188177   -1.238801
     40          8           0        1.434403   -2.551008    1.137809
     41          8           0        1.475864    2.520612    1.229299
     42          8           0        1.773794    2.275573   -1.187461
 ---------------------------------------------------------------------

 SCF Done:  E(RB3LYP) =  -1603.03129318     A.U. after   16 cycles

      1  C    Isotropic =    92.6955   Anisotropy =    79.9456

      2  H    Isotropic =    27.3712   Anisotropy =     6.3187

      3  H    Isotropic =    27.8993   Anisotropy =     8.8536

      4  Rh   Isotropic =  -319.9757   Anisotropy =   434.9047

      5  C    Isotropic =    63.4648   Anisotropy =   143.7572

      6  C    Isotropic =    66.8758   Anisotropy =   132.1059

      7  C    Isotropic =    69.8974   Anisotropy =   133.9357

      8  C    Isotropic =    62.5830   Anisotropy =   138.8415

      9  C    Isotropic =   153.7807   Anisotropy =    24.1638

     10  H    Isotropic =    26.2145   Anisotropy =     6.1714

     11  H    Isotropic =    25.9868   Anisotropy =     4.5032

     12  C    Isotropic =   149.6635   Anisotropy =    28.0032

     13  C    Isotropic =   154.4848   Anisotropy =    23.1881

     14  H    Isotropic =    26.8248   Anisotropy =     6.8414

     15  C    Isotropic =   147.8223   Anisotropy =    29.1067

     16  H    Isotropic =    25.3982   Anisotropy =     3.8696

     17  H    Isotropic =    29.7853   Anisotropy =    11.0532

     18  H    Isotropic =    29.5958   Anisotropy =     8.1713

     19  H    Isotropic =    29.0786   Anisotropy =    11.7438

     20  H    Isotropic =    29.2132   Anisotropy =     8.1261

     21  H    Isotropic =    29.6652   Anisotropy =     8.4029

     22  H    Isotropic =    29.8655   Anisotropy =    11.3593

     23  H    Isotropic =    28.9807   Anisotropy =     7.5083

     24  H    Isotropic =    29.0541   Anisotropy =    11.6107

     25  C    Isotropic =   112.6142   Anisotropy =    75.8106

     26  C    Isotropic =   113.9667   Anisotropy =    73.5409

     27  H    Isotropic =    28.0341   Anisotropy =    10.2566

     28  H    Isotropic =    27.4847   Anisotropy =     9.2561

     29  H    Isotropic =    27.5027   Anisotropy =     9.2541

     30  H    Isotropic =    28.1311   Anisotropy =    10.1723

     31  C    Isotropic =   112.4708   Anisotropy =    76.5606

     32  C    Isotropic =   114.3589   Anisotropy =    73.5993

     33  H    Isotropic =    28.0598   Anisotropy =    10.3376

     34  H    Isotropic =    27.5487   Anisotropy =     9.2468

     35  H    Isotropic =    27.4469   Anisotropy =     9.3395

     36  H    Isotropic =    28.0995   Anisotropy =    10.0345

     37  P    Isotropic =   148.1869   Anisotropy =   154.4374

     38  P    Isotropic =   144.5244   Anisotropy =   152.6148

     39  O    Isotropic =   220.1533   Anisotropy =   112.8647

     40  O    Isotropic =   208.7406   Anisotropy =   107.2966

     41  O    Isotropic =   220.9777   Anisotropy =   117.4675

     42  O    Isotropic =   208.5036   Anisotropy =   107.0215

 The electronic state is 1-A.
 Alpha  occ. eigenvalues --  -77.32060 -77.31999 -19.28429 -19.28224 -19.27925
 Alpha  occ. eigenvalues --  -19.27820 -10.35944 -10.35863 -10.35758 -10.35746
 Alpha  occ. eigenvalues --  -10.31581 -10.31580 -10.31520 -10.31410 -10.31222
 Alpha  occ. eigenvalues --  -10.29491 -10.29483 -10.29280 -10.29254  -6.77207
 Alpha  occ. eigenvalues --   -6.77144  -4.93680  -4.93612  -4.93456  -4.93396
 Alpha  occ. eigenvalues --   -4.93023  -4.92964  -3.34969  -2.12135  -2.11088
 Alpha  occ. eigenvalues --   -2.08277  -1.20896  -1.20785  -1.13821  -1.13769
 Alpha  occ. eigenvalues --   -0.96645  -0.91596  -0.91572  -0.90055  -0.89198
 Alpha  occ. eigenvalues --   -0.85854  -0.82509  -0.80015  -0.76634  -0.76458
 Alpha  occ. eigenvalues --   -0.73171  -0.72651  -0.71649  -0.67869  -0.64578
 Alpha  occ. eigenvalues --   -0.64324  -0.64100  -0.63525  -0.62461  -0.62059
 Alpha  occ. eigenvalues --   -0.60062  -0.59602  -0.59030  -0.58164  -0.57796
 Alpha  occ. eigenvalues --   -0.56519  -0.55617  -0.55138  -0.54695  -0.54538
 Alpha  occ. eigenvalues --   -0.54367  -0.53574  -0.51656  -0.50772  -0.49842
 Alpha  occ. eigenvalues --   -0.49265  -0.48397  -0.48257  -0.48149  -0.48003
 Alpha  occ. eigenvalues --   -0.47888  -0.46637  -0.45270  -0.44914  -0.43460
 Alpha  occ. eigenvalues --   -0.42760  -0.42690  -0.42002  -0.39208  -0.38845
 Alpha  occ. eigenvalues --   -0.38700  -0.38185  -0.36891  -0.33839
 Alpha virt. eigenvalues --   -0.20109  -0.16940  -0.11997  -0.10878  -0.09875
 Alpha virt. eigenvalues --   -0.09601  -0.08336  -0.08167  -0.07470  -0.06513
 Alpha virt. eigenvalues --   -0.05829  -0.05462  -0.05292  -0.04655  -0.03952

 Mulliken charges:
               1
     1  C   -0.542085
     2  H    0.228105
     3  H    0.214939
     4  Rh  -0.598335
     5  C   -0.015648
     6  C   -0.079137
     7  C    0.010787
     8  C   -0.120499
     9  C   -0.351378
    10  H    0.191996
    11  H    0.186627
    12  C   -0.223660
    13  C   -0.351950
    14  H    0.181808
    15  C   -0.220095
    16  H    0.201449
    17  H    0.180024
    18  H    0.170168
    19  H    0.185448
    20  H    0.150366
    21  H    0.169702
    22  H    0.180801
    23  H    0.148462
    24  H    0.183073
    25  C   -0.112624
    26  C   -0.106577
    27  H    0.156155
    28  H    0.165574
    29  H    0.174229
    30  H    0.159062
    31  C   -0.104957
    32  C   -0.114327
    33  H    0.155827
    34  H    0.163848
    35  H    0.175431
    36  H    0.158086
    37  P    0.692173
    38  P    0.698568
    39  O   -0.329710
    40  O   -0.341677
    41  O   -0.340810
    42  O   -0.329233
 Sum of Mulliken charges =   1.00000

 Dipole moment (field-independent basis, Debye):
    X=              1.8457    Y=             -0.0757    Z=              0.3545  Tot=              1.8809
 Quadrupole moment (field-independent basis, Debye-Ang):
   XX=            -98.3279   YY=            -97.3650   ZZ=           -143.5346
   XY=             -0.1434   XZ=              2.2063   YZ=              0.1527

 Summary of Natural Population Analysis:

                                       Natural Population
                Natural  -----------------------------------------------
    Atom  No    Charge         Core      Valence    Rydberg      Total
 -----------------------------------------------------------------------
      C    1   -1.11128      1.99947     5.09523    0.01658     7.11128
      H    2    0.28193      0.00000     0.71652    0.00155     0.71807
      H    3    0.27567      0.00000     0.72257    0.00177     0.72433
     Rh    4   -0.59209     35.98411     9.58351    0.02447    45.59209
      C    5   -0.14383      1.99907     4.12390    0.02086     6.14383
      C    6   -0.15850      1.99907     4.13789    0.02154     6.15850
      C    7   -0.17138      1.99907     4.15156    0.02075     6.17138
      C    8   -0.13524      1.99907     4.11451    0.02166     6.13524
      C    9   -0.42857      1.99936     4.41718    0.01203     6.42857
      H   10    0.23628      0.00000     0.76225    0.00147     0.76372
      H   11    0.23844      0.00000     0.75997    0.00159     0.76156
      C   12   -0.43004      1.99936     4.41805    0.01263     6.43004
      C   13   -0.42533      1.99936     4.41411    0.01186     6.42533
      H   14    0.23516      0.00000     0.76338    0.00146     0.76484
      C   15   -0.42967      1.99935     4.41767    0.01265     6.42967
      H   16    0.24107      0.00000     0.75737    0.00156     0.75893
      H   17    0.23619      0.00000     0.76243    0.00138     0.76381
      H   18    0.21478      0.00000     0.78319    0.00203     0.78522
      H   19    0.24359      0.00000     0.75472    0.00169     0.75641
      H   20    0.22717      0.00000     0.77135    0.00148     0.77283
      H   21    0.21440      0.00000     0.78358    0.00201     0.78560
      H   22    0.23604      0.00000     0.76258    0.00138     0.76396
      H   23    0.22729      0.00000     0.77121    0.00149     0.77271
      H   24    0.24256      0.00000     0.75570    0.00174     0.75744
      C   25   -0.10505      1.99931     4.08965    0.01609     6.10505
      C   26   -0.11442      1.99932     4.09867    0.01644     6.11442
      H   27    0.18968      0.00000     0.80850    0.00183     0.81032
      H   28    0.21533      0.00000     0.78299    0.00168     0.78467
      H   29    0.22035      0.00000     0.77805    0.00160     0.77965
      H   30    0.18596      0.00000     0.81215    0.00189     0.81404
      C   31   -0.10505      1.99931     4.08968    0.01607     6.10505
      C   32   -0.11581      1.99932     4.09995    0.01654     6.11581
      H   33    0.19036      0.00000     0.80784    0.00180     0.80964
      H   34    0.21423      0.00000     0.78408    0.00169     0.78577
      H   35    0.22132      0.00000     0.77709    0.00160     0.77868
      H   36    0.18442      0.00000     0.81364    0.00195     0.81558
      P   37    1.71232      9.99580     3.20029    0.09159    13.28768
      P   38    1.71591      9.99578     3.19711    0.09120    13.28409
      O   39   -0.73638      1.99984     6.72606    0.01049     8.73638
      O   40   -0.73169      1.99984     6.72160    0.01025     8.73169
      O   41   -0.73889      1.99984     6.72876    0.01030     8.73889
      O   42   -0.72721      1.99984     6.71690    0.01047     8.72721
 =======================================================================
   * Total *    1.00000     89.96548   115.53343    0.50109   206.00000

 Normal termination of Gaussian 16 at Tue Jan 21 00:51:41 2025.
