 Gaussian 16, Revision B.01,
 Gaussian 16:  ES64L-G16RevB.01 20-Dec-2017

 ------------------------------------------
 # nmr=giao b3lyp/genecp pop=nbo scfcyc=200
 ------------------------------------------

 ---------
 MB-34_SPE
 ---------
 Symbolic Z-matrix:
 Charge =  1 Multiplicity = 1

                         Standard orientation:
 ---------------------------------------------------------------------
 Center     Atomic      Atomic             Coordinates (Angstroms)
 Number     Number       Type             X           Y           Z
 ---------------------------------------------------------------------
      1         15           0        1.203730    0.215309    0.223381
      2         15           0       -1.222860    1.269300    1.178001
      3          6           0        0.617030    1.563719    1.389921
      4          1           0        0.948210    1.451519    2.420491
      5          1           0        0.929750    2.544479    1.034651
      6          6           0        2.206140    1.070109   -1.066229
      7          6           0        3.537830    1.426468   -0.828509
      8          1           0        4.018010    1.162228    0.105011
      9          6           0        4.258390    2.112318   -1.798819
     10          1           0        5.289610    2.382418   -1.609919
     11          6           0        3.660270    2.445648   -3.011329
     12          1           0        4.226740    2.975988   -3.766169
     13          6           0        2.337970    2.090629   -3.254359
     14          1           0        1.872500    2.342949   -4.198769
     15          6           0        1.612940    1.401869   -2.286939
     16          1           0        0.585690    1.116829   -2.477869
     17          6           0        2.409839   -0.855451    1.115551
     18          6           0        2.870320   -0.596091    2.407671
     19          1           0        2.540110    0.277579    2.952891
     20          6           0        3.782499   -1.454972    3.015601
     21          1           0        4.133479   -1.240192    4.016941
     22          6           0        4.244919   -2.577332    2.339651
     23          1           0        4.954699   -3.242892    2.813791
     24          6           0        3.796689   -2.839752    1.047711
     25          1           0        4.159179   -3.707952    0.512211
     26          6           0        2.882999   -1.988221    0.441201
     27          1           0        2.555649   -2.199321   -0.569739
     28          6           0       -1.840600    0.837530    2.902811
     29          1           0       -1.467470    1.640740    3.545391
     30          6           0       -1.250560   -0.492330    3.385761
     31          1           0       -1.576951   -0.684730    4.409951
     32          1           0       -0.160100   -0.497461    3.386181
     33          1           0       -1.588841   -1.322020    2.762631
     34          6           0       -3.371640    0.821380    2.974841
     35          1           0       -3.793920    0.040750    2.339561
     36          1           0       -3.820170    1.773340    2.690231
     37          1           0       -3.683670    0.608050    3.999231
     38          6           0       -1.985920    2.935600    0.754271
     39          1           0       -3.053980    2.715300    0.663721
     40          6           0       -1.789049    3.993180    1.846551
     41          1           0       -0.731349    4.213840    2.006901
     42          1           0       -2.223419    3.699560    2.801841
     43          1           0       -2.270409    4.925250    1.542611
     44          6           0       -1.487159    3.435640   -0.607279
     45          1           0       -2.035529    4.336780   -0.888489
     46          1           0       -1.629160    2.695300   -1.394799
     47          1           0       -0.427609    3.697689   -0.580089
     48         45           0       -0.980600   -0.500510   -0.383569
     49          6           0       -3.146371   -1.201470   -0.609259
     50          6           0       -2.848500   -0.296960   -1.607689
     51          6           0       -0.476741   -1.930701   -2.092639
     52          6           0       -0.625761   -2.643201   -0.920289
     53          6           0       -3.194431   -2.708340   -0.778849
     54          1           0       -3.646801   -0.815030    0.270601
     55          1           0       -3.159730    0.730530   -1.448329
     56          6           0       -2.466290   -0.616500   -3.032209
     57          6           0       -1.516361   -1.824250   -3.192359
     58          1           0        0.531739   -1.652571   -2.378189
     59          6           0       -1.850061   -3.407040   -0.477049
     60          1           0        0.274969   -2.893161   -0.369269
     61          1           0       -3.950681   -3.110580   -0.103009
     62          1           0       -3.533101   -2.953800   -1.785399
     63          1           0       -3.375021   -0.778380   -3.625479
     64          1           0       -1.991980    0.271160   -3.456609
     65          1           0       -2.087921   -2.750610   -3.247959
     66          1           0       -1.002021   -1.732900   -4.150239
     67          1           0       -1.765951   -3.569670    0.599571
     68          1           0       -1.840921   -4.406040   -0.930609
 ---------------------------------------------------------------------

 SCF Done:  E(RB3LYP) =  -1845.32672405     A.U. after   15 cycles

      1  P    Isotropic =   329.6823   Anisotropy =    92.6323

      2  P    Isotropic =   302.8831   Anisotropy =   121.3195

      3  C    Isotropic =   143.4265   Anisotropy =    53.0010

      4  H    Isotropic =    28.2757   Anisotropy =     8.0204

      5  H    Isotropic =    28.9337   Anisotropy =     5.1921

      6  C    Isotropic =    41.7408   Anisotropy =   174.6593

      7  C    Isotropic =    47.1481   Anisotropy =   188.7433

      8  H    Isotropic =    24.9625   Anisotropy =    12.6929

      9  C    Isotropic =    47.7958   Anisotropy =   190.6180

     10  H    Isotropic =    24.2985   Anisotropy =     6.3967

     11  C    Isotropic =    45.1918   Anisotropy =   198.1303

     12  H    Isotropic =    24.0306   Anisotropy =     4.0870

     13  C    Isotropic =    49.7984   Anisotropy =   186.2121

     14  H    Isotropic =    24.0720   Anisotropy =     7.2000

     15  C    Isotropic =    43.6233   Anisotropy =   176.3025

     16  H    Isotropic =    23.0400   Anisotropy =     8.7817

     17  C    Isotropic =    47.1035   Anisotropy =   173.5487

     18  C    Isotropic =    50.5736   Anisotropy =   187.7412

     19  H    Isotropic =    24.1941   Anisotropy =    11.2735

     20  C    Isotropic =    49.0545   Anisotropy =   190.0586

     21  H    Isotropic =    23.9851   Anisotropy =     6.0326

     22  C    Isotropic =    46.1709   Anisotropy =   197.4893

     23  H    Isotropic =    24.0047   Anisotropy =     3.5579

     24  C    Isotropic =    47.6048   Anisotropy =   192.5092

     25  H    Isotropic =    24.1625   Anisotropy =     6.7155

     26  C    Isotropic =    46.2827   Anisotropy =   185.9117

     27  H    Isotropic =    24.8626   Anisotropy =    11.0101

     28  C    Isotropic =   145.7890   Anisotropy =    25.5475

     29  H    Isotropic =    29.7218   Anisotropy =     6.3899

     30  C    Isotropic =   164.0838   Anisotropy =    27.9298

     31  H    Isotropic =    30.4485   Anisotropy =    11.6333

     32  H    Isotropic =    30.6066   Anisotropy =     9.3759

     33  H    Isotropic =    30.3001   Anisotropy =     5.7093

     34  C    Isotropic =   166.5683   Anisotropy =    30.1345

     35  H    Isotropic =    31.1198   Anisotropy =     6.1351

     36  H    Isotropic =    30.7443   Anisotropy =     8.6319

     37  H    Isotropic =    30.5248   Anisotropy =    12.3002

     38  C    Isotropic =   151.0406   Anisotropy =    20.5432

     39  H    Isotropic =    29.8827   Anisotropy =     5.1119

     40  C    Isotropic =   168.7968   Anisotropy =    30.5409

     41  H    Isotropic =    31.3048   Anisotropy =     7.2252

     42  H    Isotropic =    30.7859   Anisotropy =     9.4324

     43  H    Isotropic =    30.6764   Anisotropy =    12.5451

     44  C    Isotropic =   164.0000   Anisotropy =    31.3789

     45  H    Isotropic =    30.4957   Anisotropy =    11.5503

     46  H    Isotropic =    30.3308   Anisotropy =     7.7798

     47  H    Isotropic =    31.1895   Anisotropy =     5.6667

     48  Rh   Isotropic =  -325.8884   Anisotropy =   383.0783

     49  C    Isotropic =    83.0108   Anisotropy =   116.1260

     50  C    Isotropic =    74.4986   Anisotropy =   119.2130

     51  C    Isotropic =    82.4452   Anisotropy =   118.1058

     52  C    Isotropic =    72.0413   Anisotropy =   123.7872

     53  C    Isotropic =   153.9238   Anisotropy =    24.4890

     54  H    Isotropic =    27.0529   Anisotropy =     6.4090

     55  H    Isotropic =    26.0578   Anisotropy =     4.1354

     56  C    Isotropic =   146.7002   Anisotropy =    29.5764

     57  C    Isotropic =   154.2714   Anisotropy =    24.2842

     58  H    Isotropic =    26.9770   Anisotropy =     5.0874

     59  C    Isotropic =   147.9291   Anisotropy =    28.7240

     60  H    Isotropic =    26.2564   Anisotropy =     4.9270

     61  H    Isotropic =    29.8519   Anisotropy =    11.3206

     62  H    Isotropic =    29.8078   Anisotropy =     9.5747

     63  H    Isotropic =    28.9303   Anisotropy =    12.5617

     64  H    Isotropic =    28.8198   Anisotropy =     7.6175

     65  H    Isotropic =    29.7579   Anisotropy =     9.6312

     66  H    Isotropic =    29.7450   Anisotropy =    11.1845

     67  H    Isotropic =    29.1796   Anisotropy =     7.0444

     68  H    Isotropic =    29.1582   Anisotropy =    12.5499

 The electronic state is 1-A.
 Alpha  occ. eigenvalues --  -77.24239 -77.23157 -10.30636 -10.30525 -10.30512
 Alpha  occ. eigenvalues --  -10.30171 -10.29802 -10.29759 -10.29511 -10.29214
 Alpha  occ. eigenvalues --  -10.29143 -10.28942 -10.28799 -10.28536 -10.28420
 Alpha  occ. eigenvalues --  -10.28081 -10.28033 -10.28007 -10.27894 -10.27851
 Alpha  occ. eigenvalues --  -10.27812 -10.27757 -10.27703 -10.27681 -10.27659
 Alpha  occ. eigenvalues --  -10.27334 -10.27244 -10.27225 -10.27121  -6.70198
 Alpha  occ. eigenvalues --   -6.69229  -4.86494  -4.86413  -4.86097  -4.85530
 Alpha  occ. eigenvalues --   -4.85399  -4.85134  -3.32021  -2.08896  -2.08225
 Alpha  occ. eigenvalues --   -2.05513  -0.97167  -0.96426  -0.94881  -0.92836
 Alpha  occ. eigenvalues --   -0.89939  -0.89636  -0.88876  -0.88404  -0.85839
 Alpha  occ. eigenvalues --   -0.85542  -0.85257  -0.84716  -0.80769  -0.79996
 Alpha  occ. eigenvalues --   -0.79639  -0.78251  -0.76086  -0.73749  -0.71547
 Alpha  occ. eigenvalues --   -0.71333  -0.70981  -0.70629  -0.69929  -0.67263
 Alpha  occ. eigenvalues --   -0.66351  -0.64983  -0.62938  -0.62926  -0.61400
 Alpha  occ. eigenvalues --   -0.60481  -0.58770  -0.57650  -0.57335  -0.56877
 Alpha  occ. eigenvalues --   -0.56652  -0.56592  -0.56185  -0.55819  -0.55738
 Alpha  occ. eigenvalues --   -0.54886  -0.54124  -0.54038  -0.53120  -0.53076
 Alpha  occ. eigenvalues --   -0.53006  -0.52901  -0.52210  -0.51355  -0.51073
 Alpha  occ. eigenvalues --   -0.50532  -0.49683  -0.49639  -0.48682  -0.48384
 Alpha  occ. eigenvalues --   -0.48165  -0.47828  -0.47170  -0.46851  -0.46404
 Alpha  occ. eigenvalues --   -0.46394  -0.46245  -0.46183  -0.45746  -0.45337
 Alpha  occ. eigenvalues --   -0.45227  -0.44094  -0.43947  -0.43582  -0.43355
 Alpha  occ. eigenvalues --   -0.42646  -0.41982  -0.41171  -0.38319  -0.37152
 Alpha  occ. eigenvalues --   -0.36814  -0.36561  -0.36239  -0.35836  -0.35239
 Alpha  occ. eigenvalues --   -0.34561  -0.33967  -0.31346
 Alpha virt. eigenvalues --   -0.16970  -0.14921  -0.13766  -0.12474  -0.11976
 Alpha virt. eigenvalues --   -0.11312  -0.09705  -0.08738  -0.08016  -0.07502
 Alpha virt. eigenvalues --   -0.07047  -0.06704  -0.06134  -0.05576  -0.04754

 Mulliken charges:
               1
     1  P    0.375118
     2  P    0.441253
     3  C   -0.640928
     4  H    0.205790
     5  H    0.224130
     6  C   -0.326266
     7  C   -0.023863
     8  H    0.158045
     9  C   -0.100611
    10  H    0.136605
    11  C   -0.084621
    12  H    0.140857
    13  C   -0.117663
    14  H    0.130562
    15  C    0.010218
    16  H    0.178843
    17  C   -0.135750
    18  C   -0.095986
    19  H    0.130644
    20  C   -0.087262
    21  H    0.134640
    22  C   -0.098015
    23  H    0.141968
    24  C   -0.095367
    25  H    0.135084
    26  C   -0.120460
    27  H    0.167663
    28  C   -0.201616
    29  H    0.177428
    30  C   -0.376433
    31  H    0.159538
    32  H    0.132815
    33  H    0.137405
    34  C   -0.391542
    35  H    0.121232
    36  H    0.148750
    37  H    0.159824
    38  C   -0.206173
    39  H    0.175602
    40  C   -0.372588
    41  H    0.131749
    42  H    0.147138
    43  H    0.154629
    44  C   -0.394226
    45  H    0.162332
    46  H    0.126200
    47  H    0.138274
    48  Rh  -0.541392
    49  C   -0.035571
    50  C   -0.104636
    51  C   -0.043243
    52  C   -0.066190
    53  C   -0.356468
    54  H    0.186015
    55  H    0.177843
    56  C   -0.211914
    57  C   -0.374024
    58  H    0.195956
    59  C   -0.230855
    60  H    0.192767
    61  H    0.169479
    62  H    0.168944
    63  H    0.175212
    64  H    0.131120
    65  H    0.170364
    66  H    0.171691
    67  H    0.136579
    68  H    0.173356
 Sum of Mulliken charges =   1.00000

 Dipole moment (field-independent basis, Debye):
    X=             -0.5620    Y=              1.0792    Z=              1.1358  Tot=              1.6645
 Quadrupole moment (field-independent basis, Debye-Ang):
   XX=           -166.2284   YY=           -178.4523   ZZ=           -174.4686
   XY=             -2.2041   XZ=              1.7285   YZ=              1.3604

 Summary of Natural Population Analysis:

                                       Natural Population
                Natural  -----------------------------------------------
    Atom  No    Charge         Core      Valence    Rydberg      Total
 -----------------------------------------------------------------------
      P    1    1.10737      9.99657     3.84500    0.05106    13.89263
      P    2    1.10403      9.99680     3.85240    0.04678    13.89597
      C    3   -0.99536      1.99942     4.97757    0.01838     6.99536
      H    4    0.25334      0.00000     0.74471    0.00195     0.74666
      H    5    0.26459      0.00000     0.73331    0.00209     0.73541
      C    6   -0.34217      1.99899     4.31903    0.02415     6.34217
      C    7   -0.18851      1.99910     4.17325    0.01616     6.18851
      H    8    0.22107      0.00000     0.77705    0.00188     0.77893
      C    9   -0.18961      1.99920     4.17589    0.01452     6.18961
      H   10    0.22381      0.00000     0.77497    0.00122     0.77619
      C   11   -0.17469      1.99921     4.16089    0.01460     6.17469
      H   12    0.22351      0.00000     0.77532    0.00118     0.77649
      C   13   -0.19715      1.99920     4.18335    0.01461     6.19715
      H   14    0.22082      0.00000     0.77794    0.00124     0.77918
      C   15   -0.18863      1.99910     4.17377    0.01577     6.18863
      H   16    0.22007      0.00000     0.77776    0.00217     0.77993
      C   17   -0.33736      1.99899     4.31472    0.02364     6.33736
      C   18   -0.20131      1.99908     4.18631    0.01592     6.20131
      H   19    0.20553      0.00000     0.79216    0.00231     0.79447
      C   20   -0.18909      1.99920     4.17520    0.01470     6.18909
      H   21    0.22310      0.00000     0.77567    0.00123     0.77690
      C   22   -0.17886      1.99920     4.16508    0.01458     6.17886
      H   23    0.22463      0.00000     0.77420    0.00117     0.77537
      C   24   -0.18722      1.99920     4.17355    0.01448     6.18722
      H   25    0.22378      0.00000     0.77500    0.00122     0.77622
      C   26   -0.19393      1.99909     4.17943    0.01541     6.19393
      H   27    0.21351      0.00000     0.78455    0.00194     0.78649
      C   28   -0.46293      1.99941     4.44841    0.01511     6.46293
      H   29    0.22064      0.00000     0.77690    0.00246     0.77936
      C   30   -0.59176      1.99941     4.58494    0.00741     6.59176
      H   31    0.22372      0.00000     0.77477    0.00151     0.77628
      H   32    0.20673      0.00000     0.79169    0.00157     0.79327
      H   33    0.21514      0.00000     0.78349    0.00137     0.78486
      C   34   -0.59816      1.99941     4.59109    0.00766     6.59816
      H   35    0.20454      0.00000     0.79397    0.00149     0.79546
      H   36    0.20987      0.00000     0.78867    0.00146     0.79013
      H   37    0.22725      0.00000     0.77126    0.00149     0.77275
      C   38   -0.46682      1.99941     4.45334    0.01407     6.46682
      H   39    0.22388      0.00000     0.77428    0.00185     0.77612
      C   40   -0.60212      1.99942     4.59438    0.00833     6.60212
      H   41    0.20469      0.00000     0.79361    0.00170     0.79531
      H   42    0.21035      0.00000     0.78821    0.00144     0.78965
      H   43    0.22690      0.00000     0.77164    0.00146     0.77310
      C   44   -0.59349      1.99941     4.58654    0.00753     6.59349
      H   45    0.22481      0.00000     0.77373    0.00146     0.77519
      H   46    0.21344      0.00000     0.78508    0.00148     0.78656
      H   47    0.20487      0.00000     0.79341    0.00172     0.79513
     Rh   48   -0.39018     35.98591     9.37945    0.02482    45.39018
      C   49   -0.18697      1.99908     4.16813    0.01976     6.18697
      C   50   -0.15049      1.99909     4.13130    0.02010     6.15049
      C   51   -0.18768      1.99908     4.16888    0.01972     6.18768
      C   52   -0.15679      1.99908     4.13776    0.01994     6.15679
      C   53   -0.42283      1.99936     4.41156    0.01190     6.42283
      H   54    0.22120      0.00000     0.77665    0.00216     0.77880
      H   55    0.22258      0.00000     0.77548    0.00194     0.77742
      C   56   -0.41852      1.99935     4.40640    0.01277     6.41852
      C   57   -0.42362      1.99936     4.41221    0.01205     6.42362
      H   58    0.22556      0.00000     0.77240    0.00203     0.77444
      C   59   -0.41843      1.99935     4.40638    0.01269     6.41843
      H   60    0.22876      0.00000     0.76891    0.00233     0.77124
      H   61    0.22856      0.00000     0.77001    0.00144     0.77144
      H   62    0.21549      0.00000     0.78258    0.00192     0.78451
      H   63    0.23568      0.00000     0.76251    0.00182     0.76432
      H   64    0.21357      0.00000     0.78480    0.00163     0.78643
      H   65    0.21612      0.00000     0.78197    0.00191     0.78388
      H   66    0.22879      0.00000     0.76978    0.00143     0.77121
      H   67    0.21721      0.00000     0.78120    0.00159     0.78279
      H   68    0.23516      0.00000     0.76304    0.00179     0.76484
 =======================================================================
   * Total *    1.00000    109.95847   163.44887    0.59266   274.00000

 Normal termination of Gaussian 16 at Tue Jan 21 10:43:09 2025.
