 Gaussian 16, Revision B.01,
 Gaussian 16:  ES64L-G16RevB.01 20-Dec-2017

 ------------------------------------------
 # nmr=giao b3lyp/genecp pop=nbo scfcyc=200
 ------------------------------------------

 -------------
 Ligand 77 SPE
 -------------
 Symbolic Z-matrix:
 Charge =  1 Multiplicity = 1

                         Standard orientation:
 ---------------------------------------------------------------------
 Center     Atomic      Atomic             Coordinates (Angstroms)
 Number     Number       Type             X           Y           Z
 ---------------------------------------------------------------------
      1          6           0        0.000020   -2.338840    0.000169
      2          1           0        0.339790   -2.979430    0.813239
      3          1           0       -0.339710   -2.979650   -0.812751
      4          6           0        1.419150   -1.423120   -2.393971
      5          1           0        1.749780   -2.442149   -2.595441
      6          1           0        2.116330   -0.722229   -2.850131
      7          1           0        0.439610   -1.268410   -2.845151
      8          6           0        2.971030   -1.597339    0.186179
      9          6           0        4.015180   -0.676049   -0.516961
     10          1           0        3.582590    0.325621   -0.614531
     11          1           0        4.118210   -1.053729   -1.537851
     12          6           0        3.228920   -3.086369   -0.101321
     13          1           0        3.359250   -3.284449   -1.165961
     14          1           0        2.419090   -3.719349    0.266409
     15          1           0        4.137540   -3.415039    0.401089
     16          6           0        2.841010   -1.377619    1.700709
     17          1           0        3.753270   -1.689979    2.208039
     18          1           0        2.031930   -1.980669    2.119459
     19          1           0        2.650100   -0.334339    1.952719
     20          6           0       -1.419310   -1.422980    2.394129
     21          1           0       -1.749880   -2.442030    2.595619
     22          1           0       -2.116590   -0.722140    2.850199
     23          1           0       -0.439820   -1.268180    2.845389
     24          6           0       -2.971000   -1.597350   -0.186131
     25          6           0       -3.228910   -3.086370    0.101439
     26          1           0       -4.137480   -3.415080   -0.401031
     27          1           0       -3.359340   -3.284370    1.166089
     28          1           0       -2.419040   -3.719380   -0.266161
     29          6           0       -4.015200   -0.676020    0.516869
     30          1           0       -3.582620    0.325640    0.614429
     31          1           0       -4.118320   -1.053650    1.537779
     32          6           0       -2.840860   -1.377730   -1.700661
     33          1           0       -2.031720   -1.980770   -2.119311
     34          1           0       -2.649980   -0.334460   -1.952711
     35          1           0       -3.753060   -1.690160   -2.208051
     36          6           0        1.547989    2.477210    0.121439
     37          1           0        2.446889    1.952111    0.423199
     38          6           0        1.155659    2.338600   -1.193911
     39          1           0        1.795819    1.750231   -1.843271
     40          6           0        0.133329    3.173420   -1.923641
     41          1           0        0.610839    4.074790   -2.327781
     42          1           0       -0.203761    2.601840   -2.791171
     43          6           0       -1.091271    3.568530   -1.071751
     44          1           0       -1.916641    3.808060   -1.744201
     45          1           0       -0.887891    4.480960   -0.512071
     46          6           0       -1.548001    2.477180   -0.121421
     47          1           0       -2.446901    1.952080   -0.423171
     48          6           0       -1.155671    2.338610    1.193949
     49          1           0       -1.795831    1.750250    1.843309
     50          6           0       -0.133351    3.173460    1.923649
     51          1           0       -0.610881    4.074840    2.327749
     52          1           0        0.203739    2.601920    2.791209
     53          6           0        1.091259    3.568560    1.071759
     54          1           0        0.887869    4.480980    0.512069
     55          1           0        1.916619    3.808111    1.744209
     56         15           0        1.284880   -1.099520   -0.575881
     57         15           0       -1.284910   -1.099480    0.576039
     58         45           0       -0.000000    0.813820    0.000039
     59          6           0       -5.469290   -0.445741   -0.014531
     60          6           0       -6.219420   -1.744931   -0.349121
     61          1           0       -5.808930   -2.251051   -1.224201
     62          1           0       -6.209320   -2.445171    0.489019
     63          1           0       -7.264400   -1.519651   -0.572821
     64          6           0       -5.503360    0.496969   -1.231971
     65          1           0       -4.987961    1.437349   -1.018071
     66          1           0       -5.055030    0.059779   -2.122691
     67          1           0       -6.537510    0.744729   -1.480471
     68          6           0       -6.219810    0.256289    1.137259
     69          1           0       -7.237460    0.508529    0.833209
     70          1           0       -6.285550   -0.384771    2.019649
     71          1           0       -5.722911    1.184819    1.430769
     72          6           0        5.469310   -0.445739    0.014309
     73          6           0        5.503460    0.497041    1.231689
     74          1           0        4.988079    1.437421    1.017739
     75          1           0        5.055160    0.059941    2.122449
     76          1           0        6.537630    0.744801    1.480129
     77          6           0        6.219740    0.256231   -1.137581
     78          1           0        7.237400    0.508511   -0.833611
     79          1           0        6.285430   -0.384889   -2.019931
     80          1           0        5.722809    1.184741   -1.431111
     81          6           0        6.219470   -1.744909    0.348909
     82          1           0        5.809050   -2.250989    1.224049
     83          1           0        6.209300   -2.445179   -0.489191
     84          1           0        7.264460   -1.519609    0.572509
 ---------------------------------------------------------------------

 SCF Done:  E(RB3LYP) =  -1854.98419145     A.U. after   14 cycles

      1  C    Isotropic =   141.9729   Anisotropy =    52.3859

      2  H    Isotropic =    29.2800   Anisotropy =     6.0616

      3  H    Isotropic =    29.2799   Anisotropy =     6.0626

      4  C    Isotropic =   172.6478   Anisotropy =    23.1524

      5  H    Isotropic =    30.5055   Anisotropy =    10.1098

      6  H    Isotropic =    30.5569   Anisotropy =     7.8075

      7  H    Isotropic =    30.4490   Anisotropy =     7.8891

      8  C    Isotropic =   135.0889   Anisotropy =    28.7359

      9  C    Isotropic =   132.4641   Anisotropy =    32.6386

     10  H    Isotropic =    31.1510   Anisotropy =     9.4835

     11  H    Isotropic =    30.6791   Anisotropy =     7.0578

     12  C    Isotropic =   161.7127   Anisotropy =    35.4413

     13  H    Isotropic =    31.0061   Anisotropy =     8.1502

     14  H    Isotropic =    31.2107   Anisotropy =     7.1753

     15  H    Isotropic =    30.0905   Anisotropy =     8.9652

     16  C    Isotropic =   159.8772   Anisotropy =    23.6221

     17  H    Isotropic =    30.2538   Anisotropy =     8.8081

     18  H    Isotropic =    30.9522   Anisotropy =     6.1909

     19  H    Isotropic =    30.4326   Anisotropy =     5.4769

     20  C    Isotropic =   172.6476   Anisotropy =    23.1529

     21  H    Isotropic =    30.5054   Anisotropy =    10.1097

     22  H    Isotropic =    30.5571   Anisotropy =     7.8078

     23  H    Isotropic =    30.4490   Anisotropy =     7.8890

     24  C    Isotropic =   135.0885   Anisotropy =    28.7372

     25  C    Isotropic =   161.7112   Anisotropy =    35.4423

     26  H    Isotropic =    30.0905   Anisotropy =     8.9650

     27  H    Isotropic =    31.0060   Anisotropy =     8.1502

     28  H    Isotropic =    31.2105   Anisotropy =     7.1752

     29  C    Isotropic =   132.4645   Anisotropy =    32.6391

     30  H    Isotropic =    31.1511   Anisotropy =     9.4835

     31  H    Isotropic =    30.6790   Anisotropy =     7.0576

     32  C    Isotropic =   159.8776   Anisotropy =    23.6217

     33  H    Isotropic =    30.9522   Anisotropy =     6.1914

     34  H    Isotropic =    30.4326   Anisotropy =     5.4767

     35  H    Isotropic =    30.2539   Anisotropy =     8.8081

     36  C    Isotropic =    79.6703   Anisotropy =   121.0943

     37  H    Isotropic =    26.7340   Anisotropy =     8.2676

     38  C    Isotropic =    78.8096   Anisotropy =   114.6930

     39  H    Isotropic =    26.5952   Anisotropy =     3.8650

     40  C    Isotropic =   147.9402   Anisotropy =    29.8245

     41  H    Isotropic =    29.0963   Anisotropy =    12.4885

     42  H    Isotropic =    29.1428   Anisotropy =     7.2695

     43  C    Isotropic =   154.0437   Anisotropy =    25.0684

     44  H    Isotropic =    29.8372   Anisotropy =    11.0995

     45  H    Isotropic =    29.7981   Anisotropy =     9.2672

     46  C    Isotropic =    79.6696   Anisotropy =   121.0930

     47  H    Isotropic =    26.7341   Anisotropy =     8.2676

     48  C    Isotropic =    78.8100   Anisotropy =   114.6924

     49  H    Isotropic =    26.5953   Anisotropy =     3.8649

     50  C    Isotropic =   147.9402   Anisotropy =    29.8243

     51  H    Isotropic =    29.0962   Anisotropy =    12.4887

     52  H    Isotropic =    29.1427   Anisotropy =     7.2698

     53  C    Isotropic =   154.0442   Anisotropy =    25.0686

     54  H    Isotropic =    29.7981   Anisotropy =     9.2671

     55  H    Isotropic =    29.8372   Anisotropy =    11.0996

     56  P    Isotropic =   313.3091   Anisotropy =   127.8713

     57  P    Isotropic =   313.3083   Anisotropy =   127.8747

     58  Rh   Isotropic =  -318.9302   Anisotropy =   365.8673

     59  C    Isotropic =   144.9817   Anisotropy =    17.1221

     60  C    Isotropic =   155.5257   Anisotropy =    34.3132

     61  H    Isotropic =    30.8180   Anisotropy =     6.1262

     62  H    Isotropic =    30.9405   Anisotropy =     7.6928

     63  H    Isotropic =    30.8103   Anisotropy =    10.4334

     64  C    Isotropic =   153.4560   Anisotropy =    42.7882

     65  H    Isotropic =    31.2474   Anisotropy =     6.6451

     66  H    Isotropic =    30.4364   Anisotropy =     4.5160

     67  H    Isotropic =    30.8773   Anisotropy =    10.0109

     68  C    Isotropic =   147.3947   Anisotropy =    56.8912

     69  H    Isotropic =    30.9747   Anisotropy =    10.5446

     70  H    Isotropic =    31.0069   Anisotropy =     8.5182

     71  H    Isotropic =    31.0675   Anisotropy =     6.9690

     72  C    Isotropic =   144.9816   Anisotropy =    17.1221

     73  C    Isotropic =   153.4568   Anisotropy =    42.7885

     74  H    Isotropic =    31.2475   Anisotropy =     6.6450

     75  H    Isotropic =    30.4367   Anisotropy =     4.5159

     76  H    Isotropic =    30.8773   Anisotropy =    10.0111

     77  C    Isotropic =   147.3945   Anisotropy =    56.8914

     78  H    Isotropic =    30.9748   Anisotropy =    10.5445

     79  H    Isotropic =    31.0068   Anisotropy =     8.5183

     80  H    Isotropic =    31.0675   Anisotropy =     6.9689

     81  C    Isotropic =   155.5270   Anisotropy =    34.3120

     82  H    Isotropic =    30.8180   Anisotropy =     6.1263

     83  H    Isotropic =    30.9407   Anisotropy =     7.6928

     84  H    Isotropic =    30.8105   Anisotropy =    10.4335

 The electronic state is 1-A.
 Alpha  occ. eigenvalues --  -77.23379 -77.23379 -10.31424 -10.31424 -10.30521
 Alpha  occ. eigenvalues --  -10.29542 -10.29542 -10.29370 -10.29369 -10.29111
 Alpha  occ. eigenvalues --  -10.29111 -10.27927 -10.27926 -10.27899 -10.27899
 Alpha  occ. eigenvalues --  -10.27695 -10.27695 -10.27485 -10.27485 -10.27134
 Alpha  occ. eigenvalues --  -10.27134 -10.26818 -10.26817 -10.24315 -10.24314
 Alpha  occ. eigenvalues --  -10.24287 -10.24287 -10.24113 -10.24113  -6.69412
 Alpha  occ. eigenvalues --   -6.69411  -4.85714  -4.85712  -4.85596  -4.85596
 Alpha  occ. eigenvalues --   -4.85306  -4.85306  -3.31831  -2.08717  -2.08069
 Alpha  occ. eigenvalues --   -2.05268  -0.94950  -0.94170  -0.93779  -0.90493
 Alpha  occ. eigenvalues --   -0.89697  -0.89646  -0.88447  -0.87244  -0.84632
 Alpha  occ. eigenvalues --   -0.81805  -0.80813  -0.80010  -0.79987  -0.79350
 Alpha  occ. eigenvalues --   -0.79260  -0.78274  -0.77194  -0.77194  -0.76779
 Alpha  occ. eigenvalues --   -0.76770  -0.71557  -0.70994  -0.70235  -0.66374
 Alpha  occ. eigenvalues --   -0.64688  -0.64547  -0.63076  -0.62075  -0.62063
 Alpha  occ. eigenvalues --   -0.60649  -0.58749  -0.58007  -0.57794  -0.56696
 Alpha  occ. eigenvalues --   -0.56320  -0.56281  -0.55674  -0.55430  -0.54880
 Alpha  occ. eigenvalues --   -0.54136  -0.54097  -0.53947  -0.53579  -0.53128
 Alpha  occ. eigenvalues --   -0.53003  -0.52968  -0.52913  -0.52301  -0.52067
 Alpha  occ. eigenvalues --   -0.51579  -0.51497  -0.50972  -0.50793  -0.49851
 Alpha  occ. eigenvalues --   -0.49595  -0.48663  -0.48384  -0.48042  -0.47947
 Alpha  occ. eigenvalues --   -0.47351  -0.47142  -0.46768  -0.46525  -0.46460
 Alpha  occ. eigenvalues --   -0.46411  -0.45409  -0.45286  -0.45278  -0.44979
 Alpha  occ. eigenvalues --   -0.44940  -0.44238  -0.44113  -0.44101  -0.43736
 Alpha  occ. eigenvalues --   -0.43677  -0.43615  -0.42413  -0.41710  -0.41389
 Alpha  occ. eigenvalues --   -0.41363  -0.41054  -0.40940  -0.39829  -0.39233
 Alpha  occ. eigenvalues --   -0.36748  -0.36732  -0.35383  -0.34902  -0.34064
 Alpha  occ. eigenvalues --   -0.31049
 Alpha virt. eigenvalues --   -0.16570  -0.14269  -0.09787  -0.08971  -0.08301
 Alpha virt. eigenvalues --   -0.08073  -0.07494  -0.07110  -0.06761  -0.05691
 Alpha virt. eigenvalues --   -0.05099  -0.05080  -0.04579  -0.04231  -0.04166

 Mulliken charges:
               1
     1  C   -0.608657
     2  H    0.209886
     3  H    0.209888
     4  C   -0.477522
     5  H    0.169649
     6  H    0.171642
     7  H    0.167558
     8  C    0.052430
     9  C   -0.363479
    10  H    0.123690
    11  H    0.154409
    12  C   -0.387914
    13  H    0.141259
    14  H    0.136250
    15  H    0.168518
    16  C   -0.442533
    17  H    0.169753
    18  H    0.127589
    19  H    0.154663
    20  C   -0.477526
    21  H    0.169651
    22  H    0.171643
    23  H    0.167560
    24  C    0.052449
    25  C   -0.387918
    26  H    0.168519
    27  H    0.141258
    28  H    0.136247
    29  C   -0.363493
    30  H    0.123698
    31  H    0.154406
    32  C   -0.442536
    33  H    0.127587
    34  H    0.154667
    35  H    0.169753
    36  C   -0.018491
    37  H    0.182398
    38  C   -0.090215
    39  H    0.174143
    40  C   -0.228524
    41  H    0.173810
    42  H    0.132135
    43  C   -0.346415
    44  H    0.169725
    45  H    0.171098
    46  C   -0.018493
    47  H    0.182404
    48  C   -0.090219
    49  H    0.174143
    50  C   -0.228530
    51  H    0.173810
    52  H    0.132134
    53  C   -0.346413
    54  H    0.171098
    55  H    0.169727
    56  P    0.363446
    57  P    0.363437
    58  Rh  -0.493626
    59  C    0.067973
    60  C   -0.407049
    61  H    0.123082
    62  H    0.135668
    63  H    0.146165
    64  C   -0.390863
    65  H    0.120949
    66  H    0.133963
    67  H    0.145643
    68  C   -0.376610
    69  H    0.145429
    70  H    0.127844
    71  H    0.119995
    72  C    0.067969
    73  C   -0.390867
    74  H    0.120949
    75  H    0.133967
    76  H    0.145641
    77  C   -0.376611
    78  H    0.145430
    79  H    0.127845
    80  H    0.119994
    81  C   -0.407045
    82  H    0.123081
    83  H    0.135669
    84  H    0.146165
 Sum of Mulliken charges =   1.00000

 Dipole moment (field-independent basis, Debye):
    X=             -0.0001    Y=             -1.3706    Z=              0.0002  Tot=              1.3706
 Quadrupole moment (field-independent basis, Debye-Ang):
   XX=           -170.4919   YY=           -191.1875   ZZ=           -207.0586
   XY=              0.0002   XZ=             -1.5807   YZ=             -0.0002

 Summary of Natural Population Analysis:

                                       Natural Population
                Natural  -----------------------------------------------
    Atom  No    Charge         Core      Valence    Rydberg      Total
 -----------------------------------------------------------------------
      C    1   -1.01724      1.99942     4.99846    0.01936     7.01724
      H    2    0.25616      0.00000     0.74148    0.00236     0.74384
      H    3    0.25616      0.00000     0.74148    0.00236     0.74384
      C    4   -0.90699      1.99941     4.89705    0.01052     6.90699
      H    5    0.23516      0.00000     0.76264    0.00220     0.76484
      H    6    0.24227      0.00000     0.75657    0.00115     0.75773
      H    7    0.24280      0.00000     0.75579    0.00141     0.75720
      C    8   -0.23801      1.99943     4.21823    0.02036     6.23801
      C    9   -0.40281      1.99925     4.38762    0.01594     6.40281
      H   10    0.19857      0.00000     0.79860    0.00283     0.80143
      H   11    0.20422      0.00000     0.79286    0.00291     0.79578
      C   12   -0.61683      1.99936     4.60644    0.01103     6.61683
      H   13    0.20833      0.00000     0.79009    0.00158     0.79167
      H   14    0.20419      0.00000     0.79413    0.00168     0.79581
      H   15    0.23155      0.00000     0.76685    0.00160     0.76845
      C   16   -0.61177      1.99935     4.60273    0.00969     6.61177
      H   17    0.22409      0.00000     0.77411    0.00180     0.77591
      H   18    0.20002      0.00000     0.79823    0.00175     0.79998
      H   19    0.21913      0.00000     0.77947    0.00140     0.78087
      C   20   -0.90699      1.99941     4.89706    0.01052     6.90699
      H   21    0.23516      0.00000     0.76264    0.00220     0.76484
      H   22    0.24228      0.00000     0.75657    0.00115     0.75772
      H   23    0.24280      0.00000     0.75579    0.00141     0.75720
      C   24   -0.23801      1.99943     4.21822    0.02036     6.23801
      C   25   -0.61682      1.99936     4.60644    0.01103     6.61682
      H   26    0.23155      0.00000     0.76685    0.00160     0.76845
      H   27    0.20833      0.00000     0.79009    0.00158     0.79167
      H   28    0.20419      0.00000     0.79413    0.00168     0.79581
      C   29   -0.40281      1.99925     4.38762    0.01594     6.40281
      H   30    0.19857      0.00000     0.79860    0.00283     0.80143
      H   31    0.20422      0.00000     0.79286    0.00291     0.79578
      C   32   -0.61177      1.99935     4.60273    0.00969     6.61177
      H   33    0.20002      0.00000     0.79823    0.00175     0.79998
      H   34    0.21913      0.00000     0.77947    0.00140     0.78087
      H   35    0.22409      0.00000     0.77411    0.00180     0.77591
      C   36   -0.17451      1.99907     4.15564    0.01981     6.17451
      H   37    0.22221      0.00000     0.77508    0.00271     0.77779
      C   38   -0.16447      1.99908     4.14590    0.01949     6.16447
      H   39    0.22070      0.00000     0.77738    0.00192     0.77930
      C   40   -0.41769      1.99935     4.40559    0.01274     6.41769
      H   41    0.23396      0.00000     0.76423    0.00181     0.76604
      H   42    0.21669      0.00000     0.78173    0.00158     0.78331
      C   43   -0.42356      1.99936     4.41217    0.01203     6.42356
      H   44    0.22889      0.00000     0.76969    0.00142     0.77111
      H   45    0.21543      0.00000     0.78267    0.00190     0.78457
      C   46   -0.17451      1.99907     4.15564    0.01981     6.17451
      H   47    0.22221      0.00000     0.77508    0.00271     0.77779
      C   48   -0.16447      1.99908     4.14590    0.01949     6.16447
      H   49    0.22070      0.00000     0.77738    0.00192     0.77930
      C   50   -0.41769      1.99935     4.40560    0.01274     6.41769
      H   51    0.23396      0.00000     0.76423    0.00181     0.76604
      H   52    0.21669      0.00000     0.78173    0.00158     0.78331
      C   53   -0.42356      1.99936     4.41217    0.01203     6.42356
      H   54    0.21543      0.00000     0.78267    0.00190     0.78457
      H   55    0.22889      0.00000     0.76969    0.00142     0.77111
      P   56    1.10914      9.99684     3.84614    0.04788    13.89086
      P   57    1.10915      9.99684     3.84614    0.04788    13.89085
     Rh   58   -0.37815     35.98550     9.36727    0.02538    45.37815
      C   59   -0.02641      1.99945     4.01441    0.01254     6.02641
      C   60   -0.59965      1.99937     4.59184    0.00844     6.59965
      H   61    0.19664      0.00000     0.80175    0.00161     0.80336
      H   62    0.20567      0.00000     0.79295    0.00137     0.79433
      H   63    0.21669      0.00000     0.78198    0.00132     0.78331
      C   64   -0.59692      1.99937     4.58927    0.00828     6.59692
      H   65    0.19671      0.00000     0.80194    0.00136     0.80329
      H   66    0.20218      0.00000     0.79639    0.00143     0.79782
      H   67    0.21516      0.00000     0.78349    0.00135     0.78484
      C   68   -0.58791      1.99939     4.58036    0.00816     6.58791
      H   69    0.21396      0.00000     0.78468    0.00135     0.78604
      H   70    0.20364      0.00000     0.79501    0.00135     0.79636
      H   71    0.20104      0.00000     0.79763    0.00133     0.79896
      C   72   -0.02641      1.99945     4.01441    0.01254     6.02641
      C   73   -0.59692      1.99937     4.58927    0.00828     6.59692
      H   74    0.19671      0.00000     0.80194    0.00136     0.80329
      H   75    0.20218      0.00000     0.79639    0.00143     0.79782
      H   76    0.21516      0.00000     0.78349    0.00135     0.78484
      C   77   -0.58791      1.99939     4.58036    0.00816     6.58791
      H   78    0.21396      0.00000     0.78469    0.00135     0.78604
      H   79    0.20364      0.00000     0.79501    0.00135     0.79636
      H   80    0.20104      0.00000     0.79763    0.00133     0.79896
      C   81   -0.59965      1.99937     4.59184    0.00844     6.59965
      H   82    0.19664      0.00000     0.80175    0.00161     0.80336
      H   83    0.20567      0.00000     0.79295    0.00137     0.79433
      H   84    0.21669      0.00000     0.78198    0.00132     0.78331
 =======================================================================
   * Total *    1.00000    109.96108   179.46734    0.57157   290.00000

 Normal termination of Gaussian 16 at Mon Jan  1 17:18:52 2001.
