 Gaussian 16, Revision B.01,
 Gaussian 16:  ES64L-G16RevB.01 20-Dec-2017

 ------------------------------------------
 # nmr=giao b3lyp/genecp pop=nbo scfcyc=200
 ------------------------------------------

 ---------
 MB-40_SPE
 ---------
 Symbolic Z-matrix:
 Charge =  1 Multiplicity = 1

                         Standard orientation:
 ---------------------------------------------------------------------
 Center     Atomic      Atomic             Coordinates (Angstroms)
 Number     Number       Type             X           Y           Z
 ---------------------------------------------------------------------
      1         15           0       -1.413500    1.145041    0.741979
      2         15           0        1.246939    0.251770    0.289899
      3          6           0        0.322980    1.426720    1.420069
      4          1           0        0.679360    2.455400    1.394929
      5          1           0        0.387480    1.070880    2.446979
      6          6           0       -2.493061    0.845331    2.313079
      7          6           0       -3.982621    0.824442    1.933989
      8          1           0       -4.195461    0.150122    1.102629
      9          1           0       -4.355760    1.814652    1.676299
     10          1           0       -4.561721    0.475952    2.792909
     11          6           0       -2.099011   -0.538639    2.861929
     12          1           0       -1.073641   -0.555369    3.233369
     13          1           0       -2.203901   -1.327379    2.117879
     14          1           0       -2.747331   -0.779009    3.708419
     15          6           0       -2.258160    1.885531    3.420939
     16          1           0       -1.210850    1.951681    3.719049
     17          1           0       -2.822750    1.582141    4.306939
     18          1           0       -2.597020    2.881031    3.147099
     19          6           0       -1.885010    2.768681   -0.179831
     20          6           0       -3.183570    2.556791   -0.977241
     21          1           0       -3.068970    1.777841   -1.730691
     22          1           0       -3.423329    3.483421   -1.505081
     23          1           0       -4.038760    2.310022   -0.351671
     24          6           0       -0.758720    3.057990   -1.186511
     25          1           0        0.181980    3.324020   -0.705461
     26          1           0       -1.056539    3.907881   -1.805781
     27          1           0       -0.577880    2.211520   -1.850511
     28          6           0       -2.042429    3.974361    0.757469
     29          1           0       -1.182949    4.112441    1.415739
     30          1           0       -2.940049    3.907551    1.370329
     31          1           0       -2.133999    4.879791    0.151419
     32          6           0        2.439929   -0.706831    1.324649
     33          6           0        3.779959   -0.845642    0.953089
     34          1           0        4.160419   -0.341722    0.075239
     35          6           0        4.642288   -1.627412    1.716869
     36          1           0        5.679308   -1.722742    1.420499
     37          6           0        4.178958   -2.277872    2.854029
     38          1           0        4.853158   -2.881392    3.448289
     39          6           0        2.842028   -2.155581    3.222999
     40          1           0        2.472238   -2.665501    4.103759
     41          6           0        1.976039   -1.384401    2.458459
     42          1           0        0.934209   -1.323150    2.746219
     43          6           0        2.300740    1.304319   -0.791771
     44          6           0        2.274240    1.136659   -2.176921
     45          1           0        1.619539    0.396879   -2.618301
     46          6           0        3.073500    1.928919   -2.996311
     47          1           0        3.046350    1.791409   -4.069931
     48          6           0        3.899960    2.896618   -2.437471
     49          1           0        4.520011    3.514388   -3.074721
     50          6           0        3.930240    3.071678   -1.055741
     51          1           0        4.574331    3.823498   -0.617231
     52          6           0        3.136910    2.279529   -0.235471
     53          1           0        3.181550    2.418189    0.838329
     54         45           0       -0.687291   -0.777450   -0.564011
     55          6           0       -2.616022   -2.033549   -0.753771
     56          6           0       -2.489951   -1.232669   -1.864961
     57          6           0        0.232858   -2.258090   -2.007591
     58          6           0        0.185028   -2.821320   -0.744351
     59          6           0       -2.286182   -3.511829   -0.687091
     60          1           0       -3.240182   -1.659129    0.048669
     61          1           0       -3.046331   -0.302559   -1.863891
     62          6           0       -1.938892   -1.630349   -3.211281
     63          6           0       -0.715342   -2.569210   -3.151411
     64          1           0        1.176578   -1.810280   -2.298261
     65          6           0       -0.841912   -3.797720   -0.227741
     66          1           0        1.094708   -2.785490   -0.154491
     67          1           0       -2.974723   -3.990109    0.011569
     68          1           0       -2.476093   -3.972329   -1.656271
     69          1           0       -2.733242   -2.091249   -3.811631
     70          1           0       -1.662011   -0.715339   -3.739611
     71          1           0       -1.036302   -3.609100   -3.090211
     72          1           0       -0.167802   -2.482140   -4.091241
     73          1           0       -0.800912   -3.775340    0.863439
     74          1           0       -0.554833   -4.817050   -0.515291
 ---------------------------------------------------------------------

 SCF Done:  E(RB3LYP) =  -1923.96751176     A.U. after   16 cycles

      1  P    Isotropic =   282.6885   Anisotropy =   138.0251

      2  P    Isotropic =   317.0251   Anisotropy =   110.9511

      3  C    Isotropic =   135.5953   Anisotropy =    59.4918

      4  H    Isotropic =    28.5262   Anisotropy =     7.0101

      5  H    Isotropic =    28.1553   Anisotropy =     3.6486

      6  C    Isotropic =   134.8701   Anisotropy =    33.5641

      7  C    Isotropic =   155.5022   Anisotropy =    34.7000

      8  H    Isotropic =    30.8133   Anisotropy =     5.2057

      9  H    Isotropic =    30.4521   Anisotropy =     7.6976

     10  H    Isotropic =    30.6472   Anisotropy =    10.5401

     11  C    Isotropic =   150.5759   Anisotropy =    43.6550

     12  H    Isotropic =    29.9738   Anisotropy =     6.9763

     13  H    Isotropic =    29.5188   Anisotropy =     7.8072

     14  H    Isotropic =    30.6168   Anisotropy =     9.9380

     15  C    Isotropic =   157.5250   Anisotropy =    39.1711

     16  H    Isotropic =    30.6548   Anisotropy =     6.2493

     17  H    Isotropic =    30.7329   Anisotropy =    10.9839

     18  H    Isotropic =    30.4119   Anisotropy =     7.8186

     19  C    Isotropic =   135.4497   Anisotropy =    33.6899

     20  C    Isotropic =   155.0438   Anisotropy =    39.8665

     21  H    Isotropic =    30.6604   Anisotropy =     6.4433

     22  H    Isotropic =    30.8407   Anisotropy =    10.5280

     23  H    Isotropic =    30.4005   Anisotropy =     6.8634

     24  C    Isotropic =   150.6039   Anisotropy =    41.2640

     25  H    Isotropic =    31.6663   Anisotropy =     9.9684

     26  H    Isotropic =    31.2943   Anisotropy =     8.6327

     27  H    Isotropic =    30.6449   Anisotropy =     7.3202

     28  C    Isotropic =   157.3501   Anisotropy =    34.0851

     29  H    Isotropic =    30.8946   Anisotropy =     6.5979

     30  H    Isotropic =    30.6136   Anisotropy =     8.4795

     31  H    Isotropic =    30.9819   Anisotropy =    10.7922

     32  C    Isotropic =    41.6287   Anisotropy =   167.7189

     33  C    Isotropic =    46.4518   Anisotropy =   190.5131

     34  H    Isotropic =    25.2437   Anisotropy =    13.2506

     35  C    Isotropic =    48.8697   Anisotropy =   189.3117

     36  H    Isotropic =    24.4027   Anisotropy =     6.5766

     37  C    Isotropic =    46.3964   Anisotropy =   196.0668

     38  H    Isotropic =    24.1208   Anisotropy =     3.8418

     39  C    Isotropic =    49.0039   Anisotropy =   189.2549

     40  H    Isotropic =    24.0078   Anisotropy =     7.1240

     41  C    Isotropic =    49.2232   Anisotropy =   183.6739

     42  H    Isotropic =    23.7867   Anisotropy =     9.6368

     43  C    Isotropic =    46.4302   Anisotropy =   174.0865

     44  C    Isotropic =    41.4670   Anisotropy =   184.1357

     45  H    Isotropic =    23.6800   Anisotropy =     9.9276

     46  C    Isotropic =    49.1752   Anisotropy =   188.7209

     47  H    Isotropic =    24.0449   Anisotropy =     6.7287

     48  C    Isotropic =    44.7254   Anisotropy =   199.4306

     49  H    Isotropic =    23.9011   Anisotropy =     3.6200

     50  C    Isotropic =    47.6986   Anisotropy =   191.6208

     51  H    Isotropic =    24.0238   Anisotropy =     5.8024

     52  C    Isotropic =    46.4921   Anisotropy =   189.0656

     53  H    Isotropic =    24.3618   Anisotropy =    11.4128

     54  Rh   Isotropic =  -337.8674   Anisotropy =   388.1775

     55  C    Isotropic =    75.1414   Anisotropy =   126.9642

     56  C    Isotropic =    74.5911   Anisotropy =   120.2984

     57  C    Isotropic =    86.1221   Anisotropy =   111.2698

     58  C    Isotropic =    75.3724   Anisotropy =   119.4818

     59  C    Isotropic =   153.8482   Anisotropy =    25.1964

     60  H    Isotropic =    26.6182   Anisotropy =     5.0852

     61  H    Isotropic =    25.9958   Anisotropy =     3.5768

     62  C    Isotropic =   148.0643   Anisotropy =    28.4733

     63  C    Isotropic =   154.4459   Anisotropy =    24.2759

     64  H    Isotropic =    27.2728   Anisotropy =     6.9193

     65  C    Isotropic =   147.5164   Anisotropy =    29.0658

     66  H    Isotropic =    27.3868   Anisotropy =     4.4656

     67  H    Isotropic =    29.8068   Anisotropy =    11.1460

     68  H    Isotropic =    29.7660   Anisotropy =     9.6310

     69  H    Isotropic =    29.0577   Anisotropy =    12.7329

     70  H    Isotropic =    28.9683   Anisotropy =     7.4897

     71  H    Isotropic =    29.8116   Anisotropy =     9.6838

     72  H    Isotropic =    29.7767   Anisotropy =    11.7278

     73  H    Isotropic =    29.1806   Anisotropy =     6.8055

     74  H    Isotropic =    29.3059   Anisotropy =    12.3704

 The electronic state is 1-A.
 Alpha  occ. eigenvalues --  -77.24099 -77.22858 -10.31442 -10.31226 -10.30418
 Alpha  occ. eigenvalues --  -10.29965 -10.29851 -10.29377 -10.29305 -10.29184
 Alpha  occ. eigenvalues --  -10.28876 -10.28863 -10.28803 -10.28610 -10.28279
 Alpha  occ. eigenvalues --  -10.28137 -10.28079 -10.28026 -10.27801 -10.27768
 Alpha  occ. eigenvalues --  -10.27677 -10.27636 -10.27575 -10.27566 -10.27457
 Alpha  occ. eigenvalues --  -10.27098 -10.27059 -10.26744 -10.26686 -10.26671
 Alpha  occ. eigenvalues --  -10.26590  -6.70064  -6.68825  -4.86342  -4.86292
 Alpha  occ. eigenvalues --   -4.85967  -4.85130  -4.85002  -4.84728  -3.31675
 Alpha  occ. eigenvalues --   -2.08536  -2.07895  -2.05149  -0.97196  -0.96404
 Alpha  occ. eigenvalues --   -0.94710  -0.93736  -0.91817  -0.89397  -0.88941
 Alpha  occ. eigenvalues --   -0.88272  -0.85803  -0.85633  -0.85181  -0.84665
 Alpha  occ. eigenvalues --   -0.80619  -0.80078  -0.79981  -0.79265  -0.79219
 Alpha  occ. eigenvalues --   -0.78055  -0.75579  -0.72586  -0.71681  -0.71171
 Alpha  occ. eigenvalues --   -0.70806  -0.70564  -0.67220  -0.66295  -0.66072
 Alpha  occ. eigenvalues --   -0.63049  -0.62904  -0.62662  -0.61432  -0.60356
 Alpha  occ. eigenvalues --   -0.58405  -0.57489  -0.57318  -0.56576  -0.56473
 Alpha  occ. eigenvalues --   -0.56409  -0.55890  -0.55543  -0.55349  -0.55197
 Alpha  occ. eigenvalues --   -0.54745  -0.53960  -0.53865  -0.53367  -0.53254
 Alpha  occ. eigenvalues --   -0.52961  -0.52828  -0.52818  -0.51307  -0.50867
 Alpha  occ. eigenvalues --   -0.50623  -0.49873  -0.49128  -0.48939  -0.48694
 Alpha  occ. eigenvalues --   -0.48280  -0.48085  -0.47893  -0.47706  -0.47108
 Alpha  occ. eigenvalues --   -0.46645  -0.46399  -0.46213  -0.45634  -0.45486
 Alpha  occ. eigenvalues --   -0.45379  -0.45250  -0.44652  -0.44044  -0.43854
 Alpha  occ. eigenvalues --   -0.43693  -0.43174  -0.43150  -0.42261  -0.40698
 Alpha  occ. eigenvalues --   -0.40582  -0.38099  -0.36826  -0.36612  -0.36485
 Alpha  occ. eigenvalues --   -0.36017  -0.35543  -0.34931  -0.34614  -0.33885
 Alpha  occ. eigenvalues --   -0.30942
 Alpha virt. eigenvalues --   -0.16462  -0.14988  -0.13859  -0.12549  -0.12161
 Alpha virt. eigenvalues --   -0.11090  -0.09587  -0.08297  -0.07695  -0.07557
 Alpha virt. eigenvalues --   -0.06767  -0.06424  -0.06087  -0.05165  -0.04643

 Mulliken charges:
               1
     1  P    0.394575
     2  P    0.334498
     3  C   -0.663962
     4  H    0.207394
     5  H    0.217150
     6  C   -0.080237
     7  C   -0.422117
     8  H    0.146848
     9  H    0.149906
    10  H    0.155219
    11  C   -0.384882
    12  H    0.118407
    13  H    0.139764
    14  H    0.160363
    15  C   -0.354741
    16  H    0.133302
    17  H    0.150875
    18  H    0.152060
    19  C    0.004944
    20  C   -0.409814
    21  H    0.127989
    22  H    0.156989
    23  H    0.155171
    24  C   -0.432287
    25  H    0.152041
    26  H    0.157765
    27  H    0.158031
    28  C   -0.392177
    29  H    0.140262
    30  H    0.141333
    31  H    0.152565
    32  C   -0.216652
    33  C   -0.049756
    34  H    0.162488
    35  C   -0.104068
    36  H    0.135892
    37  C   -0.089017
    38  H    0.140486
    39  C   -0.115610
    40  H    0.130951
    41  C   -0.036349
    42  H    0.142908
    43  C   -0.249015
    44  C   -0.021502
    45  H    0.134833
    46  C   -0.117975
    47  H    0.132464
    48  C   -0.091014
    49  H    0.142473
    50  C   -0.083760
    51  H    0.137358
    52  C   -0.086695
    53  H    0.149575
    54  Rh  -0.439994
    55  C   -0.039384
    56  C   -0.088478
    57  C   -0.026715
    58  C   -0.095232
    59  C   -0.357013
    60  H    0.170954
    61  H    0.190848
    62  C   -0.224399
    63  C   -0.356817
    64  H    0.179970
    65  C   -0.230373
    66  H    0.221873
    67  H    0.168170
    68  H    0.168674
    69  H    0.173386
    70  H    0.129462
    71  H    0.168348
    72  H    0.167355
    73  H    0.132474
    74  H    0.171642
 Sum of Mulliken charges =   1.00000

 Dipole moment (field-independent basis, Debye):
    X=             -0.3243    Y=              0.8634    Z=              0.5022  Tot=              1.0501
 Quadrupole moment (field-independent basis, Debye-Ang):
   XX=           -178.8855   YY=           -187.9951   ZZ=           -190.6934
   XY=              2.2778   XZ=             -2.6358   YZ=             -2.2732

 Summary of Natural Population Analysis:

                                       Natural Population
                Natural  -----------------------------------------------
    Atom  No    Charge         Core      Valence    Rydberg      Total
 -----------------------------------------------------------------------
      P    1    1.06277      9.99689     3.89535    0.04499    13.93723
      P    2    1.12460      9.99654     3.82816    0.05070    13.87540
      C    3   -1.00054      1.99940     4.98254    0.01860     7.00054
      H    4    0.25556      0.00000     0.74212    0.00231     0.74444
      H    5    0.25907      0.00000     0.73876    0.00216     0.74093
      C    6   -0.25552      1.99942     4.23940    0.01670     6.25552
      C    7   -0.60414      1.99935     4.59649    0.00830     6.60414
      H    8    0.20769      0.00000     0.79077    0.00154     0.79231
      H    9    0.20965      0.00000     0.78864    0.00172     0.79035
      H   10    0.22265      0.00000     0.77554    0.00181     0.77735
      C   11   -0.59651      1.99936     4.58861    0.00854     6.59651
      H   12    0.19859      0.00000     0.79974    0.00167     0.80141
      H   13    0.21814      0.00000     0.78014    0.00172     0.78186
      H   14    0.22244      0.00000     0.77571    0.00186     0.77756
      C   15   -0.60712      1.99935     4.59891    0.00885     6.60712
      H   16    0.20479      0.00000     0.79351    0.00169     0.79521
      H   17    0.22198      0.00000     0.77628    0.00174     0.77802
      H   18    0.21419      0.00000     0.78418    0.00163     0.78581
      C   19   -0.26012      1.99941     4.24338    0.01734     6.26012
      C   20   -0.60098      1.99935     4.59346    0.00817     6.60098
      H   21    0.20709      0.00000     0.79145    0.00146     0.79291
      H   22    0.22165      0.00000     0.77656    0.00178     0.77835
      H   23    0.21103      0.00000     0.78733    0.00164     0.78897
      C   24   -0.60265      1.99936     4.59373    0.00957     6.60265
      H   25    0.20895      0.00000     0.78906    0.00199     0.79105
      H   26    0.22354      0.00000     0.77463    0.00183     0.77646
      H   27    0.21880      0.00000     0.77964    0.00156     0.78120
      C   28   -0.60590      1.99935     4.59767    0.00889     6.60590
      H   29    0.20692      0.00000     0.79125    0.00183     0.79308
      H   30    0.20779      0.00000     0.79052    0.00169     0.79221
      H   31    0.22267      0.00000     0.77556    0.00176     0.77733
      C   32   -0.34100      1.99899     4.31828    0.02373     6.34100
      C   33   -0.19385      1.99910     4.17935    0.01540     6.19385
      H   34    0.22453      0.00000     0.77368    0.00179     0.77547
      C   35   -0.18820      1.99920     4.17431    0.01469     6.18820
      H   36    0.22353      0.00000     0.77526    0.00121     0.77647
      C   37   -0.17932      1.99920     4.16541    0.01470     6.17932
      H   38    0.22375      0.00000     0.77508    0.00117     0.77625
      C   39   -0.19174      1.99920     4.17782    0.01471     6.19174
      H   40    0.22148      0.00000     0.77728    0.00124     0.77852
      C   41   -0.20040      1.99909     4.18570    0.01561     6.20040
      H   42    0.20735      0.00000     0.79018    0.00247     0.79265
      C   43   -0.34636      1.99899     4.32286    0.02451     6.34636
      C   44   -0.18356      1.99909     4.16876    0.01571     6.18356
      H   45    0.21884      0.00000     0.77913    0.00204     0.78116
      C   46   -0.19511      1.99920     4.18134    0.01457     6.19511
      H   47    0.22277      0.00000     0.77601    0.00122     0.77723
      C   48   -0.17450      1.99921     4.16075    0.01455     6.17450
      H   49    0.22448      0.00000     0.77435    0.00117     0.77552
      C   50   -0.19214      1.99920     4.17827    0.01467     6.19214
      H   51    0.22455      0.00000     0.77422    0.00124     0.77545
      C   52   -0.19684      1.99909     4.18175    0.01601     6.19684
      H   53    0.21618      0.00000     0.78173    0.00208     0.78382
     Rh   54   -0.35965     35.98599     9.34464    0.02902    45.35965
      C   55   -0.17068      1.99908     4.15177    0.01983     6.17068
      C   56   -0.16820      1.99910     4.14908    0.02002     6.16820
      C   57   -0.19179      1.99908     4.17342    0.01929     6.19179
      C   58   -0.15420      1.99910     4.13576    0.01934     6.15420
      C   59   -0.42593      1.99935     4.41452    0.01206     6.42593
      H   60    0.21985      0.00000     0.77786    0.00228     0.78015
      H   61    0.22327      0.00000     0.77454    0.00219     0.77673
      C   62   -0.41780      1.99935     4.40576    0.01269     6.41780
      C   63   -0.42185      1.99936     4.41064    0.01185     6.42185
      H   64    0.22105      0.00000     0.77685    0.00210     0.77895
      C   65   -0.41605      1.99935     4.40412    0.01259     6.41605
      H   66    0.23069      0.00000     0.76726    0.00206     0.76931
      H   67    0.22838      0.00000     0.77012    0.00150     0.77162
      H   68    0.21683      0.00000     0.78121    0.00196     0.78317
      H   69    0.23465      0.00000     0.76347    0.00188     0.76535
      H   70    0.21628      0.00000     0.78202    0.00170     0.78372
      H   71    0.21583      0.00000     0.78219    0.00198     0.78417
      H   72    0.22745      0.00000     0.77104    0.00151     0.77255
      H   73    0.21620      0.00000     0.78207    0.00173     0.78380
      H   74    0.23412      0.00000     0.76399    0.00189     0.76588
 =======================================================================
   * Total *    1.00000    113.95707   175.41293    0.63000   290.00000

 Normal termination of Gaussian 16 at Tue Jan 21 11:08:06 2025.
