 Gaussian 16, Revision B.01,
 Gaussian 16:  ES64L-G16RevB.01 20-Dec-2017

 ------------------------------------------
 # nmr=giao b3lyp/genecp pop=nbo scfcyc=200
 ------------------------------------------

 ---------
 MB-45_SPE
 ---------
 Symbolic Z-matrix:
 Charge =  1 Multiplicity = 1

                         Standard orientation:
 ---------------------------------------------------------------------
 Center     Atomic      Atomic             Coordinates (Angstroms)
 Number     Number       Type             X           Y           Z
 ---------------------------------------------------------------------
      1         15           0       -1.110250   -0.351622    0.360311
      2         15           0        1.534369   -0.264537   -0.538049
      3          6           0        0.424532   -1.434339    0.411561
      4          6           0       -3.790625   -3.098927    1.850331
      5          6           0       -3.258118   -1.594336    4.496671
      6          6           0       -4.842228   -1.624189   -2.350349
      7          6           0       -4.731922    0.668382   -0.280659
      8          6           0        2.611424   -2.535934   -4.636029
      9          6           0        0.448536   -3.709829   -2.771659
     10          1           0        0.316144   -2.447239    0.025701
     11          1           0        0.775932   -1.489248    1.440751
     12          1           0       -4.204284   -3.900617    2.467551
     13          1           0       -4.624756   -2.463138    1.545831
     14          1           0       -3.373694   -3.566986    0.956571
     15          1           0       -3.585836   -2.460876    5.076121
     16          1           0       -2.540409   -1.042274    5.107981
     17          1           0       -4.129479   -0.953387    4.343261
     18          1           0       -5.721449   -1.196050   -2.837939
     19          1           0       -4.300877   -2.204608   -3.101209
     20          1           0       -5.195357   -2.316789   -1.582959
     21          1           0       -5.616463    1.127990   -0.728699
     22          1           0       -5.082601   -0.003419    0.505861
     23          1           0       -4.156594    1.469043    0.188941
     24          1           0        3.538533   -1.963583   -4.716739
     25          1           0        2.799046   -3.527654   -5.054779
     26          1           0        1.862593   -2.049566   -5.265659
     27          1           0        0.635168   -4.689758   -3.218219
     28          1           0        0.094146   -3.884009   -1.753869
     29          1           0       -0.362675   -3.246560   -3.338389
     30         45           0        0.137526    1.599241   -0.184999
     31          6           0        1.692643    3.251624   -0.065029
     32          6           0        1.272253    3.127183   -1.374099
     33          6           0       -1.420617    3.276488   -0.261989
     34          6           0       -1.000407    3.111649    1.040321
     35          6           0        1.253201    4.333963    0.904191
     36          1           0        2.601134    2.728026    0.209461
     37          1           0        1.894704    2.538774   -2.041439
     38          6           0        0.245031    3.978721   -2.078069
     39          6           0       -0.967059    4.373649   -1.206299
     40          1           0       -2.329976    2.763776   -0.551429
     41          6           0        0.034902    3.936711    1.764751
     42          1           0       -1.626656    2.510438    1.691381
     43          1           0        2.086730    4.562935    1.570501
     44          1           0        1.049049    5.254073    0.357131
     45          1           0        0.723610    4.881692   -2.477609
     46          1           0       -0.107517    3.420330   -2.948039
     47          1           0       -0.749181    5.278959   -0.640229
     48          1           0       -1.797670    4.627787   -1.866979
     49          1           0        0.378823    3.357611    2.624071
     50          1           0       -0.435550    4.837290    2.179161
     51          6           0       -1.968210   -0.498223    1.992641
     52          1           0       -2.863441    0.126315    1.912921
     53          1           0       -1.317911    0.022448    2.703241
     54          6           0       -2.199379   -1.146514   -0.903319
     55          1           0       -2.497637   -2.121304   -0.510269
     56          1           0       -1.558818   -1.347562   -1.766699
     57          6           0        1.650801   -0.854766   -2.293299
     58          1           0        2.419869   -0.214565   -2.739109
     59          1           0        0.719860   -0.561518   -2.787529
     60          6           0        3.374186   -3.496093   -1.792499
     61          1           0        4.328245   -2.967881   -1.854389
     62          1           0        3.095886   -3.581854   -0.739919
     63          1           0        3.544408   -4.509883   -2.164149
     64          6           0       -3.197933    0.922225   -2.980259
     65          1           0       -2.439624    1.624306   -2.629269
     66          1           0       -2.773842    0.367825   -3.821219
     67          1           0       -4.041514    1.501013   -3.363659
     68          6           0       -0.998555   -3.251471    3.181641
     69          1           0       -0.562614   -3.648190    2.262801
     70          1           0       -0.216546   -2.723330    3.732451
     71          1           0       -1.300903   -4.106742    3.791141
     72         14           0       -3.760781   -0.260377   -1.615179
     73         14           0       -2.500087   -2.146574    2.854761
     74         14           0        2.032114   -2.671966   -2.842039
     75          6           0        3.270950   -0.345043    0.090841
     76          1           0        3.762411   -1.193372   -0.390989
     77          1           0        3.754268    0.551578   -0.311219
     78          6           0        2.686578    0.746616    3.006801
     79          1           0        2.860656    1.785046    2.717951
     80          1           0        1.615128    0.555004    2.921631
     81          1           0        2.959898    0.649056    4.060461
     82          6           0        5.549769    0.044461    2.064951
     83          1           0        5.712297    1.071881    1.730721
     84          1           0        5.909869   -0.027988    3.094041
     85          1           0        6.174490   -0.609288    1.451901
     86          6           0        3.514543   -2.221303    2.575021
     87          1           0        2.479744   -2.568185    2.553171
     88          1           0        4.110915   -2.915622    1.978351
     89          1           0        3.861033   -2.301482    3.608441
     90         14           0        3.726830   -0.442252    1.964391
 ---------------------------------------------------------------------

 SCF Done:  E(RB3LYP) =  -2939.39453445     A.U. after   16 cycles

      1  P    Isotropic =   330.8168   Anisotropy =    73.3936

      2  P    Isotropic =   321.9476   Anisotropy =    72.1547

      3  C    Isotropic =   131.8774   Anisotropy =    46.8292

      4  C    Isotropic =   182.1800   Anisotropy =     6.6211

      5  C    Isotropic =   182.3546   Anisotropy =    15.2528

      6  C    Isotropic =   183.1843   Anisotropy =    12.8829

      7  C    Isotropic =   184.0422   Anisotropy =     3.0393

      8  C    Isotropic =   182.3436   Anisotropy =    15.2561

      9  C    Isotropic =   180.9691   Anisotropy =     7.3390

     10  H    Isotropic =    28.9897   Anisotropy =     6.2003

     11  H    Isotropic =    28.5455   Anisotropy =     4.7762

     12  H    Isotropic =    31.5004   Anisotropy =    11.9145

     13  H    Isotropic =    31.7446   Anisotropy =     7.6266

     14  H    Isotropic =    31.8411   Anisotropy =     6.2275

     15  H    Isotropic =    31.6813   Anisotropy =    11.8374

     16  H    Isotropic =    31.7956   Anisotropy =     8.4780

     17  H    Isotropic =    31.7675   Anisotropy =     8.6362

     18  H    Isotropic =    31.6049   Anisotropy =    11.8142

     19  H    Isotropic =    31.7808   Anisotropy =     8.7855

     20  H    Isotropic =    31.7981   Anisotropy =     8.6113

     21  H    Isotropic =    31.5976   Anisotropy =    11.7763

     22  H    Isotropic =    31.8795   Anisotropy =     8.2186

     23  H    Isotropic =    32.2332   Anisotropy =     7.6285

     24  H    Isotropic =    31.7996   Anisotropy =     9.1578

     25  H    Isotropic =    31.6387   Anisotropy =    11.7150

     26  H    Isotropic =    31.7111   Anisotropy =     8.5254

     27  H    Isotropic =    31.4748   Anisotropy =    11.5804

     28  H    Isotropic =    31.8397   Anisotropy =     7.3996

     29  H    Isotropic =    31.7650   Anisotropy =     7.4783

     30  Rh   Isotropic =  -321.2690   Anisotropy =   339.9093

     31  C    Isotropic =    80.2117   Anisotropy =   118.4001

     32  C    Isotropic =    79.7557   Anisotropy =   112.1055

     33  C    Isotropic =    80.9157   Anisotropy =   117.7158

     34  C    Isotropic =    74.7411   Anisotropy =   118.6572

     35  C    Isotropic =   154.0076   Anisotropy =    24.4797

     36  H    Isotropic =    27.4394   Anisotropy =     5.6722

     37  H    Isotropic =    26.8801   Anisotropy =     4.6831

     38  C    Isotropic =   147.3547   Anisotropy =    28.8652

     39  C    Isotropic =   154.3652   Anisotropy =    24.2376

     40  H    Isotropic =    27.2578   Anisotropy =     6.7387

     41  C    Isotropic =   147.7101   Anisotropy =    28.8353

     42  H    Isotropic =    26.5708   Anisotropy =     2.8184

     43  H    Isotropic =    29.9060   Anisotropy =    10.6958

     44  H    Isotropic =    29.8581   Anisotropy =     9.6800

     45  H    Isotropic =    29.1728   Anisotropy =    12.8296

     46  H    Isotropic =    29.2322   Anisotropy =     7.0792

     47  H    Isotropic =    29.9266   Anisotropy =     9.6978

     48  H    Isotropic =    29.9314   Anisotropy =    10.7553

     49  H    Isotropic =    29.1375   Anisotropy =     6.4609

     50  H    Isotropic =    29.2068   Anisotropy =    12.4979

     51  C    Isotropic =   161.9348   Anisotropy =    27.1070

     52  H    Isotropic =    31.0325   Anisotropy =     5.1105

     53  H    Isotropic =    31.0473   Anisotropy =     5.3161

     54  C    Isotropic =   159.4753   Anisotropy =    21.9928

     55  H    Isotropic =    30.4772   Anisotropy =     7.1084

     56  H    Isotropic =    31.1221   Anisotropy =     7.0924

     57  C    Isotropic =   160.3996   Anisotropy =    31.1273

     58  H    Isotropic =    31.1541   Anisotropy =     6.0982

     59  H    Isotropic =    30.5931   Anisotropy =     5.3872

     60  C    Isotropic =   183.6544   Anisotropy =     4.3189

     61  H    Isotropic =    31.7494   Anisotropy =     7.8786

     62  H    Isotropic =    31.8991   Anisotropy =     8.0073

     63  H    Isotropic =    31.5034   Anisotropy =    11.6632

     64  C    Isotropic =   184.4003   Anisotropy =     8.0063

     65  H    Isotropic =    31.2406   Anisotropy =    11.4087

     66  H    Isotropic =    31.7029   Anisotropy =     8.3855

     67  H    Isotropic =    31.5910   Anisotropy =    11.2300

     68  C    Isotropic =   182.7168   Anisotropy =     5.9624

     69  H    Isotropic =    31.9551   Anisotropy =     6.8904

     70  H    Isotropic =    31.7934   Anisotropy =     8.0359

     71  H    Isotropic =    31.5081   Anisotropy =    11.6748

     72  Si   Isotropic =   344.6331   Anisotropy =     8.5679

     73  Si   Isotropic =   341.3005   Anisotropy =     3.9368

     74  Si   Isotropic =   342.8089   Anisotropy =     4.6105

     75  C    Isotropic =   162.7903   Anisotropy =    30.8438

     76  H    Isotropic =    30.6754   Anisotropy =     9.2273

     77  H    Isotropic =    31.2391   Anisotropy =     5.5454

     78  C    Isotropic =   183.8735   Anisotropy =     5.6959

     79  H    Isotropic =    31.5179   Anisotropy =     8.3341

     80  H    Isotropic =    31.3118   Anisotropy =     9.2113

     81  H    Isotropic =    31.4137   Anisotropy =    10.7590

     82  C    Isotropic =   183.0076   Anisotropy =    14.4532

     83  H    Isotropic =    31.8731   Anisotropy =     8.7039

     84  H    Isotropic =    31.6182   Anisotropy =    11.4770

     85  H    Isotropic =    31.7438   Anisotropy =     9.6702

     86  C    Isotropic =   183.0828   Anisotropy =     8.3897

     87  H    Isotropic =    31.8110   Anisotropy =     8.9028

     88  H    Isotropic =    31.7205   Anisotropy =     8.9629

     89  H    Isotropic =    31.5747   Anisotropy =    11.1816

     90  Si   Isotropic =   344.2585   Anisotropy =     6.8451

 The electronic state is 1-A.
 Alpha  occ. eigenvalues --  -77.23377 -77.23346 -66.22846 -66.22839 -66.22781
 Alpha  occ. eigenvalues --  -66.22686 -10.29724 -10.28874 -10.28873 -10.28757
 Alpha  occ. eigenvalues --  -10.28473 -10.27521 -10.27495 -10.27405 -10.27361
 Alpha  occ. eigenvalues --  -10.27325 -10.27318 -10.27179 -10.27087 -10.24379
 Alpha  occ. eigenvalues --  -10.24316 -10.24287 -10.24284 -10.24201 -10.24122
 Alpha  occ. eigenvalues --  -10.24060 -10.23881 -10.23587 -10.23560 -10.23503
 Alpha  occ. eigenvalues --  -10.23470  -6.69276  -6.69238  -5.36689  -5.36688
 Alpha  occ. eigenvalues --   -5.36624  -5.36535  -4.85576  -4.85543  -4.85491
 Alpha  occ. eigenvalues --   -4.85456  -4.85184  -4.85137  -3.72642  -3.72639
 Alpha  occ. eigenvalues --   -3.72578  -3.72534  -3.72528  -3.72514  -3.72513
 Alpha  occ. eigenvalues --   -3.72488  -3.72464  -3.72450  -3.72377  -3.72361
 Alpha  occ. eigenvalues --   -3.31043  -2.07905  -2.07259  -2.04528  -0.94257
 Alpha  occ. eigenvalues --   -0.89651  -0.88966  -0.87827  -0.85922  -0.82015
 Alpha  occ. eigenvalues --   -0.81845  -0.81777  -0.80360  -0.80155  -0.79421
 Alpha  occ. eigenvalues --   -0.78713  -0.78441  -0.77647  -0.77483  -0.77459
 Alpha  occ. eigenvalues --   -0.77420  -0.77279  -0.76944  -0.76850  -0.76836
 Alpha  occ. eigenvalues --   -0.76781  -0.70383  -0.66165  -0.65916  -0.65729
 Alpha  occ. eigenvalues --   -0.62368  -0.59959  -0.57338  -0.57054  -0.56956
 Alpha  occ. eigenvalues --   -0.56288  -0.56084  -0.55978  -0.55504  -0.55192
 Alpha  occ. eigenvalues --   -0.53901  -0.53496  -0.53292  -0.52967  -0.52511
 Alpha  occ. eigenvalues --   -0.52384  -0.51719  -0.50961  -0.50930  -0.50854
 Alpha  occ. eigenvalues --   -0.50770  -0.50539  -0.50370  -0.50187  -0.50161
 Alpha  occ. eigenvalues --   -0.49920  -0.49864  -0.49668  -0.49488  -0.48623
 Alpha  occ. eigenvalues --   -0.48463  -0.48446  -0.48205  -0.48076  -0.47975
 Alpha  occ. eigenvalues --   -0.47951  -0.47922  -0.47750  -0.47634  -0.47550
 Alpha  occ. eigenvalues --   -0.47478  -0.47435  -0.47367  -0.46720  -0.46431
 Alpha  occ. eigenvalues --   -0.45966  -0.45816  -0.44204  -0.43899  -0.43244
 Alpha  occ. eigenvalues --   -0.42967  -0.42720  -0.40467  -0.40234  -0.40052
 Alpha  occ. eigenvalues --   -0.39900  -0.39849  -0.39830  -0.39724  -0.39692
 Alpha  occ. eigenvalues --   -0.39505  -0.39347  -0.39263  -0.39174  -0.35881
 Alpha  occ. eigenvalues --   -0.35802  -0.34361  -0.34086  -0.33270  -0.30194
 Alpha virt. eigenvalues --   -0.15693  -0.13298  -0.09403  -0.08985  -0.08288
 Alpha virt. eigenvalues --   -0.08172  -0.07448  -0.07135  -0.06374  -0.05972
 Alpha virt. eigenvalues --   -0.05605  -0.05392  -0.05108  -0.04858  -0.04750

 Mulliken charges:
               1
     1  P    0.364700
     2  P    0.371194
     3  C   -0.561783
     4  C   -0.563872
     5  C   -0.531192
     6  C   -0.508745
     7  C   -0.589699
     8  C   -0.527109
     9  C   -0.569808
    10  H    0.205424
    11  H    0.190670
    12  H    0.158940
    13  H    0.136277
    14  H    0.135817
    15  H    0.147148
    16  H    0.133568
    17  H    0.137422
    18  H    0.148054
    19  H    0.135815
    20  H    0.140973
    21  H    0.161805
    22  H    0.141151
    23  H    0.136376
    24  H    0.138970
    25  H    0.147205
    26  H    0.136504
    27  H    0.157738
    28  H    0.126678
    29  H    0.131717
    30  Rh  -0.432885
    31  C   -0.045303
    32  C   -0.069556
    33  C   -0.037444
    34  C   -0.099951
    35  C   -0.354245
    36  H    0.168630
    37  H    0.168670
    38  C   -0.216443
    39  C   -0.357638
    40  H    0.174797
    41  C   -0.226531
    42  H    0.181456
    43  H    0.165638
    44  H    0.168999
    45  H    0.169661
    46  H    0.132244
    47  H    0.167738
    48  H    0.167724
    49  H    0.132062
    50  H    0.170494
    51  C   -0.536441
    52  H    0.165063
    53  H    0.151524
    54  C   -0.482536
    55  H    0.159754
    56  H    0.125331
    57  C   -0.538280
    58  H    0.155853
    59  H    0.155217
    60  C   -0.578072
    61  H    0.142213
    62  H    0.132945
    63  H    0.161648
    64  C   -0.569182
    65  H    0.125343
    66  H    0.140505
    67  H    0.154946
    68  C   -0.549592
    69  H    0.126530
    70  H    0.131908
    71  H    0.157564
    72  Si   0.656423
    73  Si   0.670187
    74  Si   0.686501
    75  C   -0.496902
    76  H    0.163396
    77  H    0.167197
    78  C   -0.547438
    79  H    0.129993
    80  H    0.113882
    81  H    0.159372
    82  C   -0.498527
    83  H    0.135018
    84  H    0.147551
    85  H    0.140500
    86  C   -0.562116
    87  H    0.131985
    88  H    0.145079
    89  H    0.153692
    90  Si   0.611911
 Sum of Mulliken charges =   1.00000

 Dipole moment (field-independent basis, Debye):
    X=              0.5628    Y=              0.0757    Z=             -0.1147  Tot=              0.5793
 Quadrupole moment (field-independent basis, Debye-Ang):
   XX=           -221.1530   YY=           -225.6047   ZZ=           -233.8086
   XY=              0.1243   XZ=             -1.3979   YZ=             -0.1215

 Summary of Natural Population Analysis:

                                       Natural Population
                Natural  -----------------------------------------------
    Atom  No    Charge         Core      Valence    Rydberg      Total
 -----------------------------------------------------------------------
      P    1    1.12955      9.99699     3.82231    0.05115    13.87045
      P    2    1.14343      9.99690     3.80747    0.05220    13.85657
      C    3   -1.00038      1.99944     4.98348    0.01745     7.00038
      C    4   -1.08797      1.99945     5.07994    0.00859     7.08797
      C    5   -1.07980      1.99945     5.07250    0.00785     7.07980
      C    6   -1.08100      1.99945     5.07370    0.00785     7.08100
      C    7   -1.08818      1.99945     5.08015    0.00859     7.08818
      C    8   -1.08058      1.99945     5.07324    0.00788     7.08058
      C    9   -1.08483      1.99946     5.07684    0.00852     7.08483
      H   10    0.24641      0.00000     0.75121    0.00238     0.75359
      H   11    0.25678      0.00000     0.74116    0.00206     0.74322
      H   12    0.24506      0.00000     0.75403    0.00091     0.75494
      H   13    0.23147      0.00000     0.76735    0.00118     0.76853
      H   14    0.22565      0.00000     0.77313    0.00121     0.77435
      H   15    0.24093      0.00000     0.75818    0.00089     0.75907
      H   16    0.23316      0.00000     0.76590    0.00094     0.76684
      H   17    0.23460      0.00000     0.76447    0.00093     0.76540
      H   18    0.24096      0.00000     0.75815    0.00089     0.75904
      H   19    0.23381      0.00000     0.76524    0.00095     0.76619
      H   20    0.23430      0.00000     0.76469    0.00101     0.76570
      H   21    0.24525      0.00000     0.75385    0.00090     0.75475
      H   22    0.23128      0.00000     0.76753    0.00118     0.76872
      H   23    0.22297      0.00000     0.77582    0.00122     0.77703
      H   24    0.23412      0.00000     0.76495    0.00093     0.76588
      H   25    0.24102      0.00000     0.75807    0.00091     0.75898
      H   26    0.23438      0.00000     0.76469    0.00093     0.76562
      H   27    0.24402      0.00000     0.75507    0.00091     0.75598
      H   28    0.22118      0.00000     0.77749    0.00133     0.77882
      H   29    0.22953      0.00000     0.76939    0.00109     0.77047
     Rh   30   -0.36855     35.98649     9.35576    0.02631    45.36855
      C   31   -0.17524      1.99908     4.15585    0.02031     6.17524
      C   32   -0.16902      1.99910     4.14988    0.02005     6.16902
      C   33   -0.19065      1.99907     4.17107    0.02050     6.19065
      C   34   -0.16122      1.99909     4.14174    0.02039     6.16122
      C   35   -0.42346      1.99936     4.41189    0.01221     6.42346
      H   36    0.21765      0.00000     0.78020    0.00215     0.78235
      H   37    0.22092      0.00000     0.77710    0.00198     0.77908
      C   38   -0.41733      1.99935     4.40519    0.01279     6.41733
      C   39   -0.42396      1.99936     4.41246    0.01215     6.42396
      H   40    0.22202      0.00000     0.77579    0.00219     0.77798
      C   41   -0.41790      1.99935     4.40579    0.01276     6.41790
      H   42    0.22117      0.00000     0.77682    0.00201     0.77883
      H   43    0.22611      0.00000     0.77242    0.00147     0.77389
      H   44    0.21521      0.00000     0.78288    0.00192     0.78479
      H   45    0.23242      0.00000     0.76575    0.00183     0.76758
      H   46    0.21631      0.00000     0.78200    0.00169     0.78369
      H   47    0.21456      0.00000     0.78350    0.00194     0.78544
      H   48    0.22781      0.00000     0.77072    0.00147     0.77219
      H   49    0.21643      0.00000     0.78191    0.00166     0.78357
      H   50    0.23175      0.00000     0.76639    0.00186     0.76825
      C   51   -1.16012      1.99938     5.14656    0.01418     7.16012
      H   52    0.25864      0.00000     0.73990    0.00146     0.74136
      H   53    0.25346      0.00000     0.74506    0.00148     0.74654
      C   54   -1.15700      1.99938     5.14210    0.01553     7.15700
      H   55    0.25160      0.00000     0.74625    0.00215     0.74840
      H   56    0.25141      0.00000     0.74698    0.00161     0.74859
      C   57   -1.15484      1.99938     5.14069    0.01478     7.15484
      H   58    0.25512      0.00000     0.74344    0.00144     0.74488
      H   59    0.25301      0.00000     0.74552    0.00147     0.74699
      C   60   -1.09409      1.99945     5.08595    0.00869     7.09409
      H   61    0.23275      0.00000     0.76619    0.00106     0.76725
      H   62    0.22751      0.00000     0.77136    0.00113     0.77249
      H   63    0.24598      0.00000     0.75308    0.00093     0.75402
      C   64   -1.08038      1.99945     5.07262    0.00831     7.08038
      H   65    0.22795      0.00000     0.77074    0.00131     0.77205
      H   66    0.23291      0.00000     0.76609    0.00100     0.76709
      H   67    0.24017      0.00000     0.75893    0.00090     0.75983
      C   68   -1.08871      1.99945     5.08075    0.00850     7.08871
      H   69    0.22536      0.00000     0.77342    0.00122     0.77464
      H   70    0.22991      0.00000     0.76905    0.00104     0.77009
      H   71    0.24497      0.00000     0.75414    0.00089     0.75503
     Si   72    1.62345      9.99828     2.35320    0.02507    12.37655
     Si   73    1.61843      9.99834     2.35772    0.02550    12.38157
     Si   74    1.61672      9.99834     2.35940    0.02554    12.38328
      C   75   -1.16125      1.99937     5.14724    0.01464     7.16125
      H   76    0.25763      0.00000     0.74033    0.00203     0.74237
      H   77    0.25294      0.00000     0.74573    0.00133     0.74706
      C   78   -1.07923      1.99945     5.07107    0.00871     7.07923
      H   79    0.23106      0.00000     0.76770    0.00124     0.76894
      H   80    0.22397      0.00000     0.77487    0.00116     0.77603
      H   81    0.24153      0.00000     0.75753    0.00094     0.75847
      C   82   -1.08000      1.99945     5.07277    0.00778     7.08000
      H   83    0.23239      0.00000     0.76668    0.00093     0.76761
      H   84    0.24101      0.00000     0.75810    0.00088     0.75899
      H   85    0.23625      0.00000     0.76282    0.00093     0.76375
      C   86   -1.08518      1.99945     5.07738    0.00835     7.08518
      H   87    0.22299      0.00000     0.77587    0.00114     0.77701
      H   88    0.23629      0.00000     0.76269    0.00102     0.76371
      H   89    0.24220      0.00000     0.75690    0.00089     0.75780
     Si   90    1.62104      9.99830     2.35558    0.02509    12.37896
 =======================================================================
   * Total *    1.00000    145.95775   191.42755    0.61471   338.00000

 Normal termination of Gaussian 16 at Tue Jan 21 11:27:54 2025.
