 Gaussian 16, Revision B.01,
 Gaussian 16:  ES64L-G16RevB.01 20-Dec-2017

 ------------------------------------------
 # nmr=giao b3lyp/genecp pop=nbo scfcyc=200
 ------------------------------------------

 ---------
 MB-46_SPE
 ---------
 Symbolic Z-matrix:
 Charge =  1 Multiplicity = 1

                         Standard orientation:
 ---------------------------------------------------------------------
 Center     Atomic      Atomic             Coordinates (Angstroms)
 Number     Number       Type             X           Y           Z
 ---------------------------------------------------------------------
      1         15           0        1.356490    0.226520    0.498840
      2         15           0       -1.342350    0.437969    0.196130
      3          6           0       -0.058570    1.003480    1.433090
      4          6           0        5.089150    0.389322    2.083900
      5          6           0        3.576811   -1.753709    3.766800
      6          6           0        3.339849    3.900351   -1.032370
      7          6           0        4.368020    1.108962   -1.949990
      8          6           0       -4.573411    2.334568   -1.120190
      9          6           0       -2.238291    4.236919   -1.913460
     10          1           0        0.013979    2.077710    1.605150
     11          1           0       -0.206980    0.479820    2.379070
     12          1           0        5.843870    0.516122    2.864230
     13          1           0        5.457730   -0.365618    1.386470
     14          1           0        5.000600    1.337652    1.551160
     15          1           0        4.262951   -1.664428    4.612590
     16          1           0        2.605681   -2.066009    4.156150
     17          1           0        3.952301   -2.546369    3.116460
     18          1           0        3.805658    4.415861   -1.875880
     19          1           0        2.464838    4.478801   -0.729390
     20          1           0        4.052039    3.905751   -0.204880
     21          1           0        4.860550    1.516272   -2.836760
     22          1           0        5.099620    1.101582   -1.140120
     23          1           0        4.100310    0.073801   -2.172450
     24          1           0       -4.923470    1.600748   -0.392430
     25          1           0       -5.321871    3.128508   -1.182340
     26          1           0       -4.523441    1.849818   -2.097540
     27          1           0       -2.909802    5.091809   -2.025120
     28          1           0       -1.256742    4.621459   -1.628990
     29          1           0       -2.147111    3.755759   -2.889280
     30         45           0        0.037171   -1.091100   -0.873710
     31          6           0       -1.506239   -2.677901   -1.545680
     32          6           0       -1.291109   -1.802861   -2.583160
     33          6           0        1.566231   -2.310399   -2.087060
     34          6           0        1.350061   -2.941580   -0.883020
     35          6           0       -0.906078   -4.064900   -1.414030
     36          1           0       -2.353199   -2.471501   -0.902230
     37          1           0       -1.993550   -0.982761   -2.694860
     38          6           0       -0.361639   -1.997310   -3.755100
     39          6           0        0.968361   -2.711040   -3.422590
     40          1           0        2.419281   -1.642869   -2.139960
     41          6           0        0.422682   -4.103370   -0.626850
     42          1           0        2.055831   -2.744649   -0.083150
     43          1           0       -1.626198   -4.704841   -0.901120
     44          1           0       -0.773558   -4.500380   -2.403840
     45          1           0       -0.883889   -2.545350   -4.549250
     46          1           0       -0.144490   -1.011460   -4.171810
     47          1           0        0.837702   -3.792220   -3.457110
     48          1           0        1.687751   -2.473109   -4.207880
     49          1           0        0.205552   -4.122430    0.443130
     50          1           0        0.948022   -5.042870   -0.840320
     51          6           0       -2.938741    3.804279    1.091790
     52          1           0       -3.250961    3.080299    1.846730
     53          1           0       -1.960641    4.198609    1.376310
     54          1           0       -3.646722    4.636579    1.120410
     55          6           0        1.568889    2.106441   -2.872000
     56          1           0        1.247360    1.083370   -3.078870
     57          1           0        0.684889    2.684340   -2.597090
     58          1           0        1.973239    2.526341   -3.796510
     59          6           0        2.721910    1.244771    3.909020
     60          1           0        2.577569    2.165711    3.340080
     61          1           0        1.764460    0.955491    4.347380
     62          1           0        3.401520    1.473941    4.733930
     63         14           0        2.864789    2.150901   -1.511830
     64         14           0        3.451790   -0.125279    2.845160
     65         14           0       -2.905151    3.043629   -0.628640
     66          6           0       -4.784139   -1.899682    1.153190
     67          1           0       -5.457589   -1.205912    0.645930
     68          1           0       -4.348299   -2.558352    0.399410
     69          1           0       -5.388609   -2.519172    1.820670
     70          6           0       -4.237110    0.148598    3.426740
     71          1           0       -4.945110    0.847098    2.976130
     72          1           0       -4.780450   -0.438592    4.171410
     73          1           0       -3.475790    0.728559    3.952720
     74          6           0       -2.200689   -2.145061    2.879430
     75          1           0       -1.658589   -2.695001    2.107330
     76          1           0       -1.470879   -1.613581    3.494130
     77          1           0       -2.695749   -2.876391    3.523240
     78         14           0       -3.474690   -0.977201    2.133480
     79          8           0       -2.675910    0.071289    1.027220
     80          8           0       -1.762191    1.746269   -0.635020
     81          8           0        2.157710    1.505641   -0.076220
     82          8           0        2.351090   -0.463669    1.553560
 ---------------------------------------------------------------------

 SCF Done:  E(RB3LYP) =  -3083.33885425     A.U. after   16 cycles

      1  P    Isotropic =   198.7732   Anisotropy =   156.6050

      2  P    Isotropic =   196.5610   Anisotropy =   158.8002

      3  C    Isotropic =    91.8183   Anisotropy =    72.8800

      4  C    Isotropic =   181.2538   Anisotropy =    12.9625

      5  C    Isotropic =   182.5473   Anisotropy =    14.6988

      6  C    Isotropic =   182.3184   Anisotropy =    15.1324

      7  C    Isotropic =   181.8653   Anisotropy =    12.1326

      8  C    Isotropic =   181.7455   Anisotropy =    13.8139

      9  C    Isotropic =   182.2754   Anisotropy =    13.4650

     10  H    Isotropic =    28.0312   Anisotropy =     5.6486

     11  H    Isotropic =    27.6508   Anisotropy =     6.7486

     12  H    Isotropic =    31.6874   Anisotropy =    11.6472

     13  H    Isotropic =    31.5384   Anisotropy =     6.6285

     14  H    Isotropic =    31.5573   Anisotropy =     7.8873

     15  H    Isotropic =    31.7219   Anisotropy =    11.5317

     16  H    Isotropic =    31.5451   Anisotropy =     8.0161

     17  H    Isotropic =    31.4334   Anisotropy =     7.6679

     18  H    Isotropic =    31.6849   Anisotropy =    11.1497

     19  H    Isotropic =    31.4865   Anisotropy =     8.0079

     20  H    Isotropic =    31.4184   Anisotropy =     8.6359

     21  H    Isotropic =    31.6483   Anisotropy =    11.1836

     22  H    Isotropic =    31.4377   Anisotropy =     8.8850

     23  H    Isotropic =    31.8570   Anisotropy =     7.2859

     24  H    Isotropic =    31.5548   Anisotropy =     8.3882

     25  H    Isotropic =    31.7108   Anisotropy =    11.6600

     26  H    Isotropic =    31.5325   Anisotropy =     7.2042

     27  H    Isotropic =    31.6623   Anisotropy =    11.5076

     28  H    Isotropic =    31.5126   Anisotropy =     7.9244

     29  H    Isotropic =    31.3814   Anisotropy =     7.2542

     30  Rh   Isotropic =  -315.0204   Anisotropy =   362.6262

     31  C    Isotropic =    73.4217   Anisotropy =   128.1370

     32  C    Isotropic =    73.3858   Anisotropy =   122.3949

     33  C    Isotropic =    80.8057   Anisotropy =   117.7028

     34  C    Isotropic =    69.5321   Anisotropy =   128.5302

     35  C    Isotropic =   153.9157   Anisotropy =    23.8563

     36  H    Isotropic =    26.9160   Anisotropy =     7.1430

     37  H    Isotropic =    26.3446   Anisotropy =     4.0358

     38  C    Isotropic =   148.2001   Anisotropy =    27.2376

     39  C    Isotropic =   154.3989   Anisotropy =    23.0952

     40  H    Isotropic =    27.2763   Anisotropy =     6.6454

     41  C    Isotropic =   147.4148   Anisotropy =    28.7653

     42  H    Isotropic =    26.0326   Anisotropy =     3.6817

     43  H    Isotropic =    29.8921   Anisotropy =    10.4379

     44  H    Isotropic =    29.7346   Anisotropy =     9.1312

     45  H    Isotropic =    29.1690   Anisotropy =    12.3095

     46  H    Isotropic =    29.2435   Anisotropy =     7.1832

     47  H    Isotropic =    29.8028   Anisotropy =     9.3734

     48  H    Isotropic =    29.9196   Anisotropy =    10.8935

     49  H    Isotropic =    29.1295   Anisotropy =     6.7109

     50  H    Isotropic =    29.1303   Anisotropy =    12.0834

     51  C    Isotropic =   182.2210   Anisotropy =    11.4487

     52  H    Isotropic =    31.5628   Anisotropy =     8.5022

     53  H    Isotropic =    31.6437   Anisotropy =     7.1160

     54  H    Isotropic =    31.6415   Anisotropy =    11.6142

     55  C    Isotropic =   180.8700   Anisotropy =    10.8224

     56  H    Isotropic =    30.8933   Anisotropy =    10.0348

     57  H    Isotropic =    31.2155   Anisotropy =    10.2340

     58  H    Isotropic =    31.5564   Anisotropy =    10.7209

     59  C    Isotropic =   182.4341   Anisotropy =    10.5591

     60  H    Isotropic =    31.6407   Anisotropy =     6.4822

     61  H    Isotropic =    31.7402   Anisotropy =     7.3679

     62  H    Isotropic =    31.6245   Anisotropy =    11.6618

     63  Si   Isotropic =   312.3136   Anisotropy =    27.4309

     64  Si   Isotropic =   309.8444   Anisotropy =    32.7455

     65  Si   Isotropic =   311.0472   Anisotropy =    30.3365

     66  C    Isotropic =   181.8450   Anisotropy =    13.7851

     67  H    Isotropic =    31.4153   Anisotropy =     8.2737

     68  H    Isotropic =    31.6832   Anisotropy =     7.6637

     69  H    Isotropic =    31.6621   Anisotropy =    11.3329

     70  C    Isotropic =   181.4982   Anisotropy =    15.0553

     71  H    Isotropic =    31.3964   Anisotropy =     8.0630

     72  H    Isotropic =    31.6583   Anisotropy =    11.3480

     73  H    Isotropic =    31.6021   Anisotropy =     6.9819

     74  C    Isotropic =   182.2652   Anisotropy =    10.9219

     75  H    Isotropic =    31.1384   Anisotropy =     9.6880

     76  H    Isotropic =    31.3678   Anisotropy =     7.6265

     77  H    Isotropic =    31.4778   Anisotropy =    10.9265

     78  Si   Isotropic =   314.9513   Anisotropy =    26.3781

     79  O    Isotropic =   187.7919   Anisotropy =   106.0816

     80  O    Isotropic =   184.0970   Anisotropy =   116.2308

     81  O    Isotropic =   168.2306   Anisotropy =    98.0799

     82  O    Isotropic =   181.5867   Anisotropy =   114.1888

 The electronic state is 1-A.
 Alpha  occ. eigenvalues --  -77.30267 -77.30111 -66.26107 -66.25571 -66.25544
 Alpha  occ. eigenvalues --  -66.25353 -19.24034 -19.23857 -19.23822 -19.23607
 Alpha  occ. eigenvalues --  -10.29398 -10.29354 -10.29320 -10.28957 -10.28860
 Alpha  occ. eigenvalues --  -10.27826 -10.27796 -10.27699 -10.27563 -10.24909
 Alpha  occ. eigenvalues --  -10.24450 -10.24340 -10.24281 -10.24240 -10.24126
 Alpha  occ. eigenvalues --  -10.24079 -10.24001 -10.23885 -10.23866 -10.23823
 Alpha  occ. eigenvalues --  -10.23789  -6.75094  -6.74973  -5.39605  -5.39092
 Alpha  occ. eigenvalues --   -5.39069  -5.38876  -4.91563  -4.91436  -4.91399
 Alpha  occ. eigenvalues --   -4.91267  -4.90933  -4.90827  -3.75784  -3.75359
 Alpha  occ. eigenvalues --   -3.75337  -3.75267  -3.75246  -3.75052  -3.74840
 Alpha  occ. eigenvalues --   -3.74832  -3.74819  -3.74803  -3.74624  -3.74614
 Alpha  occ. eigenvalues --   -3.31933  -2.08940  -2.08096  -2.05347  -1.13895
 Alpha  occ. eigenvalues --   -1.13629  -1.09372  -1.09307  -0.94734  -0.89513
 Alpha  occ. eigenvalues --   -0.88298  -0.86228  -0.81693  -0.81229  -0.80945
 Alpha  occ. eigenvalues --   -0.80854  -0.80642  -0.78165  -0.78128  -0.77749
 Alpha  occ. eigenvalues --   -0.77654  -0.77563  -0.77428  -0.77376  -0.77313
 Alpha  occ. eigenvalues --   -0.77204  -0.73591  -0.71400  -0.70884  -0.66105
 Alpha  occ. eigenvalues --   -0.65017  -0.64540  -0.62812  -0.61086  -0.60089
 Alpha  occ. eigenvalues --   -0.57469  -0.56493  -0.56077  -0.55193  -0.54053
 Alpha  occ. eigenvalues --   -0.53943  -0.53580  -0.53377  -0.53010  -0.52836
 Alpha  occ. eigenvalues --   -0.52775  -0.52500  -0.52224  -0.51559  -0.51177
 Alpha  occ. eigenvalues --   -0.50963  -0.50741  -0.50609  -0.50547  -0.50344
 Alpha  occ. eigenvalues --   -0.50209  -0.50006  -0.49827  -0.49728  -0.49296
 Alpha  occ. eigenvalues --   -0.48990  -0.48783  -0.48736  -0.48629  -0.48523
 Alpha  occ. eigenvalues --   -0.48345  -0.48260  -0.48225  -0.48170  -0.48025
 Alpha  occ. eigenvalues --   -0.47946  -0.47728  -0.47659  -0.47563  -0.46808
 Alpha  occ. eigenvalues --   -0.46345  -0.46296  -0.45951  -0.45704  -0.44979
 Alpha  occ. eigenvalues --   -0.44636  -0.44244  -0.43395  -0.43310  -0.41890
 Alpha  occ. eigenvalues --   -0.41242  -0.40138  -0.39783  -0.39707  -0.39642
 Alpha  occ. eigenvalues --   -0.39344  -0.39133  -0.38971  -0.38846  -0.36446
 Alpha  occ. eigenvalues --   -0.36081  -0.35562  -0.35086  -0.34002  -0.30878
 Alpha virt. eigenvalues --   -0.16696  -0.13770  -0.09843  -0.09015  -0.08357
 Alpha virt. eigenvalues --   -0.07722  -0.07089  -0.07057  -0.06893  -0.05344
 Alpha virt. eigenvalues --   -0.04921  -0.04751  -0.04615  -0.04401  -0.04126

 Mulliken charges:
               1
     1  P    0.743497
     2  P    0.722295
     3  C   -0.569153
     4  C   -0.556312
     5  C   -0.510385
     6  C   -0.508622
     7  C   -0.557748
     8  C   -0.558339
     9  C   -0.525025
    10  H    0.199842
    11  H    0.190919
    12  H    0.148816
    13  H    0.141783
    14  H    0.136921
    15  H    0.143412
    16  H    0.136492
    17  H    0.141168
    18  H    0.140858
    19  H    0.138309
    20  H    0.143919
    21  H    0.149819
    22  H    0.147068
    23  H    0.129317
    24  H    0.137137
    25  H    0.145900
    26  H    0.139011
    27  H    0.148855
    28  H    0.135493
    29  H    0.143577
    30  Rh  -0.573471
    31  C   -0.009841
    32  C   -0.076885
    33  C   -0.031821
    34  C   -0.094553
    35  C   -0.356766
    36  H    0.146237
    37  H    0.177167
    38  C   -0.221465
    39  C   -0.360114
    40  H    0.172860
    41  C   -0.224142
    42  H    0.200401
    43  H    0.167636
    44  H    0.168329
    45  H    0.174766
    46  H    0.139808
    47  H    0.166405
    48  H    0.169454
    49  H    0.134019
    50  H    0.174172
    51  C   -0.573804
    52  H    0.145817
    53  H    0.136292
    54  H    0.149754
    55  C   -0.548633
    56  H    0.125408
    57  H    0.149967
    58  H    0.154645
    59  C   -0.561525
    60  H    0.141199
    61  H    0.130863
    62  H    0.153038
    63  Si   0.733476
    64  Si   0.757095
    65  Si   0.773584
    66  C   -0.552166
    67  H    0.148437
    68  H    0.144311
    69  H    0.149125
    70  C   -0.513077
    71  H    0.145335
    72  H    0.148865
    73  H    0.136636
    74  C   -0.570051
    75  H    0.131987
    76  H    0.135022
    77  H    0.158667
    78  Si   0.729337
    79  O   -0.493570
    80  O   -0.467213
    81  O   -0.485640
    82  O   -0.474200
 Sum of Mulliken charges =   1.00000

 Dipole moment (field-independent basis, Debye):
    X=             -0.2541    Y=             -0.7519    Z=              0.4285  Tot=              0.9020
 Quadrupole moment (field-independent basis, Debye-Ang):
   XX=           -205.4958   YY=           -217.5943   ZZ=           -218.6357
   XY=              1.5763   XZ=             -1.9048   YZ=              0.7679

 Summary of Natural Population Analysis:

                                       Natural Population
                Natural  -----------------------------------------------
    Atom  No    Charge         Core      Valence    Rydberg      Total
 -----------------------------------------------------------------------
      P    1    1.78745      9.99605     3.12225    0.09425    13.21255
      P    2    1.79067      9.99610     3.11952    0.09371    13.20933
      C    3   -1.09131      1.99946     5.07761    0.01423     7.09131
      C    4   -1.11089      1.99944     5.10317    0.00828     7.11089
      C    5   -1.10556      1.99944     5.09824    0.00788     7.10556
      C    6   -1.10484      1.99943     5.09757    0.00784     7.10484
      C    7   -1.10985      1.99943     5.10203    0.00839     7.10985
      C    8   -1.10994      1.99944     5.10227    0.00824     7.10994
      C    9   -1.10667      1.99944     5.09910    0.00813     7.10667
      H   10    0.26562      0.00000     0.73242    0.00195     0.73438
      H   11    0.25882      0.00000     0.73950    0.00168     0.74118
      H   12    0.24405      0.00000     0.75511    0.00084     0.75595
      H   13    0.23970      0.00000     0.75936    0.00094     0.76030
      H   14    0.23550      0.00000     0.76340    0.00110     0.76450
      H   15    0.24266      0.00000     0.75652    0.00082     0.75734
      H   16    0.23758      0.00000     0.76150    0.00091     0.76242
      H   17    0.24048      0.00000     0.75866    0.00086     0.75952
      H   18    0.24220      0.00000     0.75697    0.00084     0.75780
      H   19    0.23833      0.00000     0.76074    0.00093     0.76167
      H   20    0.24005      0.00000     0.75901    0.00094     0.75995
      H   21    0.24433      0.00000     0.75483    0.00085     0.75567
      H   22    0.24097      0.00000     0.75800    0.00103     0.75903
      H   23    0.22790      0.00000     0.77104    0.00106     0.77210
      H   24    0.23634      0.00000     0.76262    0.00104     0.76366
      H   25    0.24265      0.00000     0.75651    0.00084     0.75735
      H   26    0.23834      0.00000     0.76075    0.00091     0.76166
      H   27    0.24289      0.00000     0.75629    0.00082     0.75711
      H   28    0.23553      0.00000     0.76348    0.00099     0.76447
      H   29    0.24050      0.00000     0.75860    0.00090     0.75950
     Rh   30   -0.55752     35.98560     9.54259    0.02933    45.55752
      C   31   -0.16516      1.99906     4.14519    0.02091     6.16516
      C   32   -0.16482      1.99908     4.14485    0.02090     6.16482
      C   33   -0.19127      1.99907     4.17141    0.02080     6.19127
      C   34   -0.14678      1.99907     4.12670    0.02100     6.14678
      C   35   -0.42644      1.99936     4.41509    0.01198     6.42644
      H   36    0.22223      0.00000     0.77531    0.00245     0.77777
      H   37    0.23181      0.00000     0.76632    0.00186     0.76819
      C   38   -0.42325      1.99936     4.41143    0.01246     6.42325
      C   39   -0.42370      1.99936     4.41247    0.01186     6.42370
      H   40    0.22307      0.00000     0.77451    0.00243     0.77693
      C   41   -0.42237      1.99936     4.41047    0.01254     6.42237
      H   42    0.23615      0.00000     0.76179    0.00206     0.76385
      H   43    0.22789      0.00000     0.77063    0.00148     0.77211
      H   44    0.21568      0.00000     0.78230    0.00202     0.78432
      H   45    0.23595      0.00000     0.76219    0.00186     0.76405
      H   46    0.22019      0.00000     0.77829    0.00152     0.77981
      H   47    0.21442      0.00000     0.78354    0.00204     0.78558
      H   48    0.22907      0.00000     0.76945    0.00148     0.77093
      H   49    0.21942      0.00000     0.77905    0.00153     0.78058
      H   50    0.23493      0.00000     0.76314    0.00193     0.76507
      C   51   -1.11576      1.99944     5.10770    0.00862     7.11576
      H   52    0.23749      0.00000     0.76149    0.00102     0.76251
      H   53    0.23397      0.00000     0.76498    0.00105     0.76603
      H   54    0.24534      0.00000     0.75379    0.00087     0.75466
      C   55   -1.10800      1.99943     5.09992    0.00864     7.10800
      H   56    0.23469      0.00000     0.76402    0.00130     0.76531
      H   57    0.24217      0.00000     0.75676    0.00107     0.75783
      H   58    0.24256      0.00000     0.75655    0.00089     0.75744
      C   59   -1.11639      1.99944     5.10847    0.00848     7.11639
      H   60    0.23763      0.00000     0.76130    0.00107     0.76237
      H   61    0.23295      0.00000     0.76602    0.00103     0.76705
      H   62    0.24714      0.00000     0.75202    0.00085     0.75286
     Si   63    1.85685      9.99796     2.11181    0.03338    12.14315
     Si   64    1.85283      9.99801     2.11596    0.03320    12.14717
     Si   65    1.85506      9.99801     2.11350    0.03342    12.14494
      C   66   -1.10759      1.99943     5.10005    0.00811     7.10759
      H   67    0.24240      0.00000     0.75660    0.00100     0.75760
      H   68    0.23060      0.00000     0.76839    0.00100     0.76940
      H   69    0.24440      0.00000     0.75477    0.00083     0.75560
      C   70   -1.10910      1.99944     5.10156    0.00811     7.10910
      H   71    0.24108      0.00000     0.75797    0.00094     0.75892
      H   72    0.24399      0.00000     0.75517    0.00084     0.75601
      H   73    0.23693      0.00000     0.76212    0.00095     0.76307
      C   74   -1.11256      1.99944     5.10464    0.00848     7.11256
      H   75    0.23567      0.00000     0.76312    0.00121     0.76433
      H   76    0.23197      0.00000     0.76692    0.00111     0.76803
      H   77    0.24672      0.00000     0.75242    0.00087     0.75328
     Si   78    1.85880      9.99796     2.11003    0.03321    12.14120
      O   79   -1.14183      1.99977     7.13277    0.00929     9.14183
      O   80   -1.12483      1.99979     7.11416    0.01089     9.12483
      O   81   -1.13116      1.99978     7.12071    0.01067     9.13116
      O   82   -1.12700      1.99978     7.11722    0.01000     9.12700
 =======================================================================
   * Total *    1.00000    145.95522   191.34669    0.69809   338.00000

 Normal termination of Gaussian 16 at Tue Jan 21 13:08:12 2025.
