 Gaussian 16, Revision B.01,
 Gaussian 16:  ES64L-G16RevB.01 20-Dec-2017

 ------------------------------------------
 # nmr=giao b3lyp/genecp pop=nbo scfcyc=200
 ------------------------------------------

 ---------
 MB-43_SPE
 ---------
 Symbolic Z-matrix:
 Charge =  1 Multiplicity = 1

                         Standard orientation:
 ---------------------------------------------------------------------
 Center     Atomic      Atomic             Coordinates (Angstroms)
 Number     Number       Type             X           Y           Z
 ---------------------------------------------------------------------
      1          6           0       -0.131492   -1.523499    1.283539
      2          1           0       -0.389013   -2.582409    1.269469
      3          1           0        0.195728   -1.244380    2.286319
      4          6           0       -1.062198    2.942592   -0.880731
      5          1           0       -2.056598    2.529083   -1.010681
      6          6           0       -0.602478    3.064421    0.412599
      7          1           0       -1.274188    2.765672    1.210579
      8          6           0        0.607103    3.841360    0.868949
      9          1           0        0.326214    4.889080    1.034569
     10          1           0        0.896233    3.454960    1.848409
     11          6           0        1.822733    3.775759   -0.082181
     12          1           0        2.719013    4.021818    0.489599
     13          1           0        1.742474    4.540559   -0.854071
     14          6           0        2.028442    2.420118   -0.732501
     15          1           0        2.846021    1.830068   -0.334761
     16          6           0        1.512361    2.023409   -1.943991
     17          1           0        1.980560    1.167669   -2.419641
     18          6           0        0.581972    2.802480   -2.839551
     19          1           0        1.168683    3.453419   -3.499711
     20          1           0        0.080011    2.089610   -3.497741
     21          6           0       -0.483387    3.638191   -2.097271
     22          1           0       -0.074626    4.606071   -1.808821
     23          1           0       -1.296267    3.851782   -2.793141
     24         15           0       -1.377571   -0.252518    0.729559
     25         15           0        1.189638   -0.986951    0.078489
     26         45           0        0.180400    1.086570   -0.353071
     27          6           0        2.792098   -1.204272    0.944169
     28          6           0        3.536707   -2.377663    0.800769
     29          6           0        3.244599   -0.194033    1.798059
     30          6           0        4.724957   -2.533044    1.506349
     31          1           0        3.187916   -3.163263    0.144109
     32          6           0        4.429269   -0.359304    2.506419
     33          1           0        2.671750    0.719068    1.912539
     34          6           0        5.171568   -1.527305    2.358129
     35          1           0        5.301146   -3.442645    1.392269
     36          1           0        4.775900    0.424476    3.168129
     37          1           0        6.097308   -1.652996    2.905269
     38          6           0       -2.669752   -1.114457   -0.249541
     39          6           0       -3.777351   -0.362846   -0.664611
     40          6           0       -2.573513   -2.455277   -0.629371
     41          6           0       -4.777632   -0.949595   -1.427351
     42          1           0       -3.867280    0.678744   -0.379941
     43          6           0       -3.575934   -3.037226   -1.400231
     44          1           0       -1.722724   -3.055178   -0.337021
     45          6           0       -4.677613   -2.288645   -1.797601
     46          1           0       -5.634101   -0.363124   -1.735181
     47          1           0       -3.496145   -4.078976   -1.684391
     48          1           0       -5.457314   -2.745574   -2.393711
     49          6           0        1.282797   -1.977321   -2.465141
     50          1           0        0.747358   -1.051450   -2.697541
     51          6           0        0.603936   -3.145310   -3.155691
     52          1           0       -0.448804   -3.202989   -2.880311
     53          1           0        0.668666   -3.025010   -4.238541
     54          1           0        1.089215   -4.085231   -2.886851
     55          6           0        2.749677   -1.837062   -2.840051
     56          1           0        3.230348   -1.013803   -2.307971
     57          1           0        3.297126   -2.753483   -2.613861
     58          1           0        2.841388   -1.642692   -3.910491
     59          6           0       -3.110691   -0.295966    2.885779
     60          1           0       -3.528362   -1.132236    2.319569
     61          6           0       -4.206970    0.702005    3.208929
     62          1           0       -3.795469    1.567664    3.730999
     63          1           0       -4.705300    1.046285    2.302619
     64          1           0       -4.954961    0.236935    3.853549
     65          6           0       -2.390122   -0.809037    4.121829
     66          1           0       -1.628102   -1.548068    3.872109
     67          1           0       -1.916971    0.014322    4.659629
     68          1           0       -3.105922   -1.288416    4.792239
     69          8           0       -2.150090    0.406213    2.014139
     70          8           0        1.137037   -2.209941   -1.023931
 ---------------------------------------------------------------------

 SCF Done:  E(RB3LYP) =  -1995.85402412     A.U. after   15 cycles

      1  C    Isotropic =   118.7141   Anisotropy =    61.5928

      2  H    Isotropic =    27.7717   Anisotropy =     6.4597

      3  H    Isotropic =    28.2965   Anisotropy =     5.4476

      4  C    Isotropic =    78.7743   Anisotropy =   120.3952

      5  H    Isotropic =    26.7965   Anisotropy =     7.2808

      6  C    Isotropic =    69.3131   Anisotropy =   129.5462

      7  H    Isotropic =    25.3812   Anisotropy =     3.5786

      8  C    Isotropic =   147.3630   Anisotropy =    29.6810

      9  H    Isotropic =    28.9519   Anisotropy =    12.1631

     10  H    Isotropic =    28.8226   Anisotropy =     7.3177

     11  C    Isotropic =   153.7924   Anisotropy =    25.0007

     12  H    Isotropic =    29.7746   Anisotropy =    11.2338

     13  H    Isotropic =    29.6872   Anisotropy =     9.1277

     14  C    Isotropic =    71.7444   Anisotropy =   132.0306

     15  H    Isotropic =    26.8393   Anisotropy =     5.3337

     16  C    Isotropic =    74.5126   Anisotropy =   120.0474

     17  H    Isotropic =    26.4520   Anisotropy =     4.2890

     18  C    Isotropic =   148.2747   Anisotropy =    29.7025

     19  H    Isotropic =    29.1847   Anisotropy =    12.3521

     20  H    Isotropic =    29.3940   Anisotropy =     7.4136

     21  C    Isotropic =   154.2879   Anisotropy =    23.6894

     22  H    Isotropic =    29.7275   Anisotropy =     9.1567

     23  H    Isotropic =    29.8871   Anisotropy =    11.4245

     24  P    Isotropic =   219.0106   Anisotropy =   194.5511

     25  P    Isotropic =   222.6997   Anisotropy =   235.8841

     26  Rh   Isotropic =  -311.5337   Anisotropy =   358.4250

     27  C    Isotropic =    41.5568   Anisotropy =   165.4905

     28  C    Isotropic =    48.8578   Anisotropy =   195.8186

     29  C    Isotropic =    50.5728   Anisotropy =   183.3610

     30  C    Isotropic =    48.3659   Anisotropy =   190.7530

     31  H    Isotropic =    23.7914   Anisotropy =    11.2383

     32  C    Isotropic =    48.9492   Anisotropy =   189.5958

     33  H    Isotropic =    23.8718   Anisotropy =     9.6732

     34  C    Isotropic =    44.6314   Anisotropy =   196.9664

     35  H    Isotropic =    24.0534   Anisotropy =     5.8978

     36  H    Isotropic =    24.0204   Anisotropy =     6.9824

     37  H    Isotropic =    23.9727   Anisotropy =     4.3511

     38  C    Isotropic =    45.5321   Anisotropy =   169.7490

     39  C    Isotropic =    47.0980   Anisotropy =   192.1358

     40  C    Isotropic =    49.5500   Anisotropy =   191.3132

     41  C    Isotropic =    48.3221   Anisotropy =   191.6086

     42  H    Isotropic =    24.1369   Anisotropy =     9.6408

     43  C    Isotropic =    48.6167   Anisotropy =   190.9735

     44  H    Isotropic =    24.0585   Anisotropy =     9.3497

     45  C    Isotropic =    44.6267   Anisotropy =   198.5461

     46  H    Isotropic =    23.9855   Anisotropy =     6.1426

     47  H    Isotropic =    23.9816   Anisotropy =     6.2373

     48  H    Isotropic =    23.9223   Anisotropy =     4.0837

     49  C    Isotropic =   100.2375   Anisotropy =    81.1801

     50  H    Isotropic =    27.6883   Anisotropy =     4.3860

     51  C    Isotropic =   159.9657   Anisotropy =    38.4746

     52  H    Isotropic =    30.4444   Anisotropy =     8.7714

     53  H    Isotropic =    30.8313   Anisotropy =    10.1628

     54  H    Isotropic =    30.3759   Anisotropy =     7.9067

     55  C    Isotropic =   159.6257   Anisotropy =    32.8183

     56  H    Isotropic =    31.2027   Anisotropy =     3.3168

     57  H    Isotropic =    30.6331   Anisotropy =     7.7164

     58  H    Isotropic =    30.8702   Anisotropy =    10.3204

     59  C    Isotropic =   103.6621   Anisotropy =    81.8926

     60  H    Isotropic =    28.2056   Anisotropy =     6.5135

     61  C    Isotropic =   159.2839   Anisotropy =    40.7479

     62  H    Isotropic =    30.5171   Anisotropy =     6.8227

     63  H    Isotropic =    30.6330   Anisotropy =     6.9370

     64  H    Isotropic =    30.9484   Anisotropy =    11.3747

     65  C    Isotropic =   160.5269   Anisotropy =    36.5894

     66  H    Isotropic =    30.9079   Anisotropy =     5.4127

     67  H    Isotropic =    30.6254   Anisotropy =     6.4414

     68  H    Isotropic =    30.9153   Anisotropy =    11.2367

     69  O    Isotropic =   215.2293   Anisotropy =    45.7394

     70  O    Isotropic =   216.0865   Anisotropy =    45.8523

 The electronic state is 1-A.
 Alpha  occ. eigenvalues --  -77.27423 -77.27249 -19.25558 -19.25395 -10.33781
 Alpha  occ. eigenvalues --  -10.33637 -10.30245 -10.30174 -10.29735 -10.29678
 Alpha  occ. eigenvalues --  -10.29664 -10.29516 -10.29329 -10.29091 -10.29085
 Alpha  occ. eigenvalues --  -10.28621 -10.28270 -10.28265 -10.28216 -10.28181
 Alpha  occ. eigenvalues --  -10.28113 -10.28053 -10.27912 -10.27800 -10.27768
 Alpha  occ. eigenvalues --  -10.27678 -10.27584 -10.26221 -10.26020 -10.25707
 Alpha  occ. eigenvalues --  -10.25597  -6.72914  -6.72755  -4.89359  -4.89182
 Alpha  occ. eigenvalues --   -4.89108  -4.88938  -4.88767  -4.88629  -3.32461
 Alpha  occ. eigenvalues --   -2.09434  -2.08636  -2.05891  -1.14227  -1.14130
 Alpha  occ. eigenvalues --   -0.97096  -0.96559  -0.95044  -0.90509  -0.89818
 Alpha  occ. eigenvalues --   -0.89184  -0.88583  -0.87244  -0.86285  -0.85991
 Alpha  occ. eigenvalues --   -0.85377  -0.84592  -0.80937  -0.79389  -0.79131
 Alpha  occ. eigenvalues --   -0.78425  -0.75535  -0.73361  -0.71686  -0.71382
 Alpha  occ. eigenvalues --   -0.71145  -0.70853  -0.70014  -0.67014  -0.67001
 Alpha  occ. eigenvalues --   -0.66376  -0.63208  -0.63100  -0.62684  -0.61413
 Alpha  occ. eigenvalues --   -0.60392  -0.59065  -0.57769  -0.57164  -0.56806
 Alpha  occ. eigenvalues --   -0.56669  -0.56364  -0.56148  -0.55751  -0.55650
 Alpha  occ. eigenvalues --   -0.55055  -0.54817  -0.54199  -0.53857  -0.53194
 Alpha  occ. eigenvalues --   -0.53173  -0.52861  -0.52795  -0.52639  -0.50442
 Alpha  occ. eigenvalues --   -0.49998  -0.49873  -0.49186  -0.49052  -0.48753
 Alpha  occ. eigenvalues --   -0.48665  -0.48361  -0.48250  -0.47916  -0.47546
 Alpha  occ. eigenvalues --   -0.46940  -0.46587  -0.46575  -0.46421  -0.45722
 Alpha  occ. eigenvalues --   -0.45654  -0.45204  -0.45007  -0.44020  -0.43824
 Alpha  occ. eigenvalues --   -0.43706  -0.43092  -0.42195  -0.41683  -0.40883
 Alpha  occ. eigenvalues --   -0.39614  -0.38328  -0.37903  -0.36721  -0.36523
 Alpha  occ. eigenvalues --   -0.36194  -0.36119  -0.35768  -0.35160  -0.34438
 Alpha  occ. eigenvalues --   -0.31589
 Alpha virt. eigenvalues --   -0.17567  -0.15280  -0.13554  -0.12508  -0.12213
 Alpha virt. eigenvalues --   -0.11709  -0.10004  -0.08215  -0.07721  -0.07277
 Alpha virt. eigenvalues --   -0.06770  -0.06672  -0.05957  -0.05145  -0.04627

 Mulliken charges:
               1
     1  C   -0.603146
     2  H    0.214580
     3  H    0.242452
     4  C   -0.018238
     5  H    0.170129
     6  C   -0.101260
     7  H    0.217801
     8  C   -0.222667
     9  H    0.175370
    10  H    0.134003
    11  C   -0.348929
    12  H    0.170630
    13  H    0.168439
    14  C   -0.060181
    15  H    0.204168
    16  C   -0.094671
    17  H    0.189351
    18  C   -0.219624
    19  H    0.175306
    20  H    0.132780
    21  C   -0.345596
    22  H    0.167662
    23  H    0.171572
    24  P    0.574682
    25  P    0.543868
    26  Rh  -0.618210
    27  C   -0.231799
    28  C   -0.040035
    29  C   -0.074083
    30  C   -0.089866
    31  H    0.149972
    32  C   -0.106417
    33  H    0.172331
    34  C   -0.090696
    35  H    0.137770
    36  H    0.132720
    37  H    0.141137
    38  C   -0.203366
    39  C   -0.080045
    40  C   -0.068719
    41  C   -0.097993
    42  H    0.145227
    43  C   -0.092495
    44  H    0.148664
    45  C   -0.096223
    46  H    0.137995
    47  H    0.138348
    48  H    0.142869
    49  C    0.020809
    50  H    0.132230
    51  C   -0.353653
    52  H    0.142334
    53  H    0.135484
    54  H    0.134963
    55  C   -0.372807
    56  H    0.136314
    57  H    0.139964
    58  H    0.147579
    59  C    0.007521
    60  H    0.145385
    61  C   -0.320232
    62  H    0.131599
    63  H    0.128515
    64  H    0.138738
    65  C   -0.346955
    66  H    0.125161
    67  H    0.135348
    68  H    0.144564
    69  O   -0.375827
    70  O   -0.372603
 Sum of Mulliken charges =   1.00000

 Dipole moment (field-independent basis, Debye):
    X=             -0.5251    Y=             -0.0688    Z=             -0.2313  Tot=              0.5779
 Quadrupole moment (field-independent basis, Debye-Ang):
   XX=           -165.9370   YY=           -182.7280   ZZ=           -188.2801
   XY=              1.8251   XZ=              3.5744   YZ=              0.5861

 Summary of Natural Population Analysis:

                                       Natural Population
                Natural  -----------------------------------------------
    Atom  No    Charge         Core      Valence    Rydberg      Total
 -----------------------------------------------------------------------
      C    1   -1.04476      1.99943     5.02571    0.01963     7.04476
      H    2    0.26178      0.00000     0.73609    0.00213     0.73822
      H    3    0.27325      0.00000     0.72536    0.00139     0.72675
      C    4   -0.18454      1.99906     4.16557    0.01991     6.18454
      H    5    0.22548      0.00000     0.77247    0.00205     0.77452
      C    6   -0.14296      1.99907     4.12352    0.02038     6.14296
      H    7    0.24185      0.00000     0.75612    0.00202     0.75815
      C    8   -0.42263      1.99935     4.41088    0.01240     6.42263
      H    9    0.23610      0.00000     0.76202    0.00188     0.76390
      H   10    0.22025      0.00000     0.77828    0.00147     0.77975
      C   11   -0.42665      1.99936     4.41534    0.01195     6.42665
      H   12    0.22940      0.00000     0.76915    0.00145     0.77060
      H   13    0.21618      0.00000     0.78184    0.00198     0.78382
      C   14   -0.16041      1.99906     4.14136    0.01999     6.16041
      H   15    0.22873      0.00000     0.76897    0.00230     0.77127
      C   16   -0.16689      1.99907     4.14681    0.02101     6.16689
      H   17    0.22578      0.00000     0.77218    0.00203     0.77422
      C   18   -0.42248      1.99936     4.41063    0.01250     6.42248
      H   19    0.23633      0.00000     0.76178    0.00189     0.76367
      H   20    0.21975      0.00000     0.77876    0.00148     0.78025
      C   21   -0.42331      1.99936     4.41218    0.01176     6.42331
      H   22    0.21492      0.00000     0.78309    0.00199     0.78508
      H   23    0.23030      0.00000     0.76824    0.00147     0.76970
      P   24    1.46637      9.99596     3.46812    0.06955    13.53363
      P   25    1.44771      9.99614     3.48795    0.06820    13.55229
     Rh   26   -0.49053     35.98522     9.47203    0.03327    45.49053
      C   27   -0.38595      1.99900     4.36112    0.02583     6.38595
      C   28   -0.18428      1.99909     4.16847    0.01671     6.18428
      C   29   -0.19674      1.99909     4.18230    0.01535     6.19674
      C   30   -0.18963      1.99920     4.17588    0.01455     6.18963
      H   31    0.22638      0.00000     0.77130    0.00232     0.77362
      C   32   -0.19412      1.99920     4.18015    0.01478     6.19412
      H   33    0.21693      0.00000     0.78108    0.00199     0.78307
      C   34   -0.17533      1.99921     4.16147    0.01466     6.17533
      H   35    0.22339      0.00000     0.77539    0.00122     0.77661
      H   36    0.22158      0.00000     0.77719    0.00123     0.77842
      H   37    0.22358      0.00000     0.77525    0.00117     0.77642
      C   38   -0.38491      1.99899     4.36079    0.02513     6.38491
      C   39   -0.18780      1.99910     4.17280    0.01591     6.18780
      C   40   -0.19086      1.99910     4.17569    0.01607     6.19086
      C   41   -0.19141      1.99920     4.17756    0.01465     6.19141
      H   42    0.21428      0.00000     0.78348    0.00224     0.78572
      C   43   -0.19389      1.99920     4.17983    0.01486     6.19389
      H   44    0.21634      0.00000     0.78122    0.00244     0.78366
      C   45   -0.17361      1.99921     4.15974    0.01466     6.17361
      H   46    0.22397      0.00000     0.77481    0.00122     0.77603
      H   47    0.22339      0.00000     0.77537    0.00124     0.77661
      H   48    0.22461      0.00000     0.77423    0.00116     0.77539
      C   49    0.10492      1.99929     3.88034    0.01544     5.89508
      H   50    0.17978      0.00000     0.81769    0.00252     0.82022
      C   51   -0.60452      1.99941     4.59788    0.00723     6.60452
      H   52    0.21536      0.00000     0.78325    0.00139     0.78464
      H   53    0.21949      0.00000     0.77945    0.00106     0.78051
      H   54    0.21461      0.00000     0.78399    0.00140     0.78539
      C   55   -0.62009      1.99941     4.61405    0.00663     6.62009
      H   56    0.20689      0.00000     0.79182    0.00129     0.79311
      H   57    0.21740      0.00000     0.78114    0.00146     0.78260
      H   58    0.22309      0.00000     0.77578    0.00112     0.77691
      C   59    0.09590      1.99930     3.88750    0.01730     5.90410
      H   60    0.18072      0.00000     0.81662    0.00267     0.81928
      C   61   -0.60502      1.99941     4.59743    0.00818     6.60502
      H   62    0.21431      0.00000     0.78430    0.00139     0.78569
      H   63    0.21305      0.00000     0.78574    0.00122     0.78695
      H   64    0.22150      0.00000     0.77749    0.00101     0.77850
      C   65   -0.61350      1.99942     4.60654    0.00755     6.61350
      H   66    0.20351      0.00000     0.79511    0.00138     0.79649
      H   67    0.21550      0.00000     0.78305    0.00145     0.78450
      H   68    0.22487      0.00000     0.77410    0.00103     0.77513
      O   69   -0.78165      1.99981     6.76404    0.01781     8.78165
      O   70   -0.78104      1.99981     6.76349    0.01774     8.78104
 =======================================================================
   * Total *    1.00000    113.95588   175.36039    0.68373   290.00000

 Normal termination of Gaussian 16 at Tue Jan 21 11:07:37 2025.
