 Gaussian 16, Revision B.01,
 Gaussian 16:  ES64L-G16RevB.01 20-Dec-2017

 ------------------------------------------
 # nmr=giao b3lyp/genecp pop=nbo scfcyc=200
 ------------------------------------------

 ---------
 MB-49_SPE
 ---------
 Symbolic Z-matrix:
 Charge =  1 Multiplicity = 1

                         Standard orientation:
 ---------------------------------------------------------------------
 Center     Atomic      Atomic             Coordinates (Angstroms)
 Number     Number       Type             X           Y           Z
 ---------------------------------------------------------------------
      1         15           0        1.268451    0.552610    0.368870
      2          6           0       -0.005369    1.389160    1.462920
      3          6           0        2.675691    0.027359    1.436090
      4          6           0        4.000681    0.241999    1.047790
      5          6           0        5.045770   -0.231071    1.836060
      6          6           0        4.779890   -0.922481    3.012130
      7          6           0        3.461690   -1.150911    3.397910
      8          6           0        2.414960   -0.687581    2.611020
      9          6           0        1.916121    1.883370   -0.721010
     10          6           0        1.855821    1.735370   -2.107980
     11          6           0        2.330561    2.743509   -2.942580
     12          6           0        2.863712    3.905029   -2.396510
     13          6           0        2.923992    4.061059   -1.013080
     14          6           0        2.453432    3.056629   -0.177380
     15          1           0        0.069571    1.020410    2.486130
     16          1           0        0.028351    2.477650    1.476370
     17          1           0        4.224341    0.784949    0.139160
     18          1           0        6.068831   -0.053792    1.529080
     19          1           0        5.594950   -1.285472    3.625170
     20          1           0        3.248700   -1.693081    4.310650
     21          1           0        1.395860   -0.892640    2.917150
     22          1           0        1.429471    0.836570   -2.534840
     23          1           0        2.281411    2.620789   -4.017200
     24          1           0        3.232582    4.689469   -3.045240
     25          1           0        3.339662    4.965079   -0.586110
     26          1           0        2.515882    3.186299    0.896610
     27         45           0       -0.274100   -0.994020   -0.525220
     28          6           0       -1.833540   -2.661069   -0.667480
     29          6           0       -1.894460   -1.888959   -1.807710
     30          6           0        1.006300   -2.260990   -1.922390
     31          6           0        1.087850   -2.777490   -0.644940
     32          6           0       -1.162711   -4.017089   -0.553990
     33          1           0       -2.532680   -2.416939    0.124440
     34          1           0       -2.652970   -1.112719   -1.838420
     35          6           0       -1.251170   -2.188819   -3.139200
     36          6           0        0.157000   -2.818230   -3.050020
     37          1           0        1.803780   -1.591120   -2.226000
     38          6           0        0.307569   -3.943340   -0.089280
     39          1           0        1.951090   -2.494880   -0.051390
     40          1           0       -1.721291   -4.620869    0.163160
     41          1           0       -1.235091   -4.541889   -1.506220
     42          1           0       -1.909970   -2.838619   -3.728700
     43          1           0       -1.188320   -1.250429   -3.694700
     44          1           0        0.083649   -3.901170   -2.952700
     45          1           0        0.673570   -2.638460   -3.994250
     46          1           0        0.335619   -3.870370    1.000040
     47          1           0        0.822459   -4.879900   -0.338010
     48          6           0       -2.799899    0.298721    1.890800
     49          6           0       -2.508369    1.937471   -0.170320
     50          6           0       -3.882159    1.051942    1.596720
     51          6           0       -3.719209    1.973711    0.428190
     52         15           0       -1.517269    0.636731    0.639230
     53          6           0       -2.003809    2.719921   -1.342320
     54          1           0       -1.077138    3.249161   -1.103210
     55          1           0       -1.783589    2.069111   -2.192770
     56          1           0       -2.727178    3.463861   -1.672440
     57          6           0       -4.862139    2.854012    0.014980
     58          1           0       -5.736159    2.257702   -0.260030
     59          1           0       -5.170298    3.508262    0.834360
     60          1           0       -4.610028    3.482792   -0.835440
     61          6           0       -5.177799    1.035792    2.353210
     62          1           0       -5.383089    2.013882    2.796270
     63          1           0       -6.016539    0.805792    1.691520
     64          1           0       -5.176229    0.303222    3.156790
     65          6           0       -2.597410   -0.686239    2.999450
     66          1           0       -3.515230   -0.863419    3.558210
     67          1           0       -2.246470   -1.650169    2.622920
     68          1           0       -1.848720   -0.332999    3.716630
 ---------------------------------------------------------------------

 SCF Done:  E(RB3LYP) =  -1920.33305662     A.U. after   16 cycles

      1  P    Isotropic =   318.2747   Anisotropy =   108.8430

      2  C    Isotropic =   132.3983   Anisotropy =    58.0478

      3  C    Isotropic =    43.3586   Anisotropy =   167.7294

      4  C    Isotropic =    47.1720   Anisotropy =   190.5302

      5  C    Isotropic =    48.6205   Anisotropy =   190.1767

      6  C    Isotropic =    46.2787   Anisotropy =   196.0973

      7  C    Isotropic =    48.7793   Anisotropy =   189.6491

      8  C    Isotropic =    49.6613   Anisotropy =   185.0336

      9  C    Isotropic =    46.5900   Anisotropy =   173.2570

     10  C    Isotropic =    40.9976   Anisotropy =   181.5400

     11  C    Isotropic =    49.2144   Anisotropy =   188.4966

     12  C    Isotropic =    44.1503   Anisotropy =   199.9076

     13  C    Isotropic =    47.4478   Anisotropy =   192.0434

     14  C    Isotropic =    46.2082   Anisotropy =   188.9100

     15  H    Isotropic =    27.7196   Anisotropy =     4.1369

     16  H    Isotropic =    28.5673   Anisotropy =     9.1413

     17  H    Isotropic =    25.0553   Anisotropy =    12.6813

     18  H    Isotropic =    24.3497   Anisotropy =     6.4657

     19  H    Isotropic =    24.0900   Anisotropy =     3.9180

     20  H    Isotropic =    23.9745   Anisotropy =     6.5337

     21  H    Isotropic =    23.8864   Anisotropy =    10.1796

     22  H    Isotropic =    23.4204   Anisotropy =     9.7839

     23  H    Isotropic =    23.9845   Anisotropy =     6.6043

     24  H    Isotropic =    23.8537   Anisotropy =     3.7819

     25  H    Isotropic =    24.0065   Anisotropy =     5.6140

     26  H    Isotropic =    24.3283   Anisotropy =    11.2293

     27  Rh   Isotropic =  -314.3556   Anisotropy =   373.5014

     28  C    Isotropic =    76.3879   Anisotropy =   125.5587

     29  C    Isotropic =    76.5864   Anisotropy =   117.8210

     30  C    Isotropic =    80.4777   Anisotropy =   118.1916

     31  C    Isotropic =    71.6727   Anisotropy =   123.9550

     32  C    Isotropic =   153.8498   Anisotropy =    24.8596

     33  H    Isotropic =    27.1377   Anisotropy =     6.4731

     34  H    Isotropic =    26.8397   Anisotropy =     4.6687

     35  C    Isotropic =   147.8769   Anisotropy =    29.0660

     36  C    Isotropic =   153.9495   Anisotropy =    24.6649

     37  H    Isotropic =    27.0086   Anisotropy =     6.6674

     38  C    Isotropic =   147.7505   Anisotropy =    29.3607

     39  H    Isotropic =    26.9635   Anisotropy =     3.5911

     40  H    Isotropic =    29.8804   Anisotropy =    11.2799

     41  H    Isotropic =    29.8241   Anisotropy =     9.3192

     42  H    Isotropic =    29.1177   Anisotropy =    12.5141

     43  H    Isotropic =    29.1145   Anisotropy =     7.9767

     44  H    Isotropic =    29.8024   Anisotropy =     9.3706

     45  H    Isotropic =    29.7859   Anisotropy =    11.6047

     46  H    Isotropic =    29.1572   Anisotropy =     7.3651

     47  H    Isotropic =    29.2759   Anisotropy =    12.1564

     48  C    Isotropic =    47.6701   Anisotropy =   128.7719

     49  C    Isotropic =    44.6257   Anisotropy =   133.6128

     50  C    Isotropic =    23.1792   Anisotropy =   149.0774

     51  C    Isotropic =    25.5183   Anisotropy =   145.0750

     52  P    Isotropic =   301.4734   Anisotropy =   199.7379

     53  C    Isotropic =   170.4824   Anisotropy =    18.4325

     54  H    Isotropic =    30.8930   Anisotropy =     9.4196

     55  H    Isotropic =    30.1116   Anisotropy =     6.3340

     56  H    Isotropic =    29.7787   Anisotropy =     9.1641

     57  C    Isotropic =   169.5259   Anisotropy =    20.4429

     58  H    Isotropic =    30.1031   Anisotropy =     8.7051

     59  H    Isotropic =    30.0892   Anisotropy =     9.3447

     60  H    Isotropic =    29.7477   Anisotropy =     5.6920

     61  C    Isotropic =   169.2348   Anisotropy =    21.0215

     62  H    Isotropic =    30.0459   Anisotropy =     9.3830

     63  H    Isotropic =    30.0159   Anisotropy =     8.4686

     64  H    Isotropic =    29.6039   Anisotropy =     6.0721

     65  C    Isotropic =   171.2530   Anisotropy =    20.7159

     66  H    Isotropic =    29.2634   Anisotropy =     8.9724

     67  H    Isotropic =    29.6484   Anisotropy =     7.0546

     68  H    Isotropic =    29.7443   Anisotropy =     8.3493

 The electronic state is 1-A.
 Alpha  occ. eigenvalues --  -77.24131 -77.22902 -10.30687 -10.29993 -10.29890
 Alpha  occ. eigenvalues --  -10.29557 -10.29423 -10.29364 -10.29353 -10.29264
 Alpha  occ. eigenvalues --  -10.29073 -10.28868 -10.28855 -10.28772 -10.28720
 Alpha  occ. eigenvalues --  -10.28664 -10.28333 -10.28154 -10.28071 -10.28030
 Alpha  occ. eigenvalues --  -10.27807 -10.27795 -10.27750 -10.27641 -10.27584
 Alpha  occ. eigenvalues --  -10.27561 -10.27553 -10.27459 -10.27020 -10.26460
 Alpha  occ. eigenvalues --  -10.26381  -6.70111  -6.69030  -4.86393  -4.86336
 Alpha  occ. eigenvalues --   -4.86009  -4.85314  -4.85220  -4.84936  -3.31933
 Alpha  occ. eigenvalues --   -2.08841  -2.08151  -2.05398  -0.97209  -0.96565
 Alpha  occ. eigenvalues --   -0.96421  -0.94703  -0.89447  -0.89338  -0.88745
 Alpha  occ. eigenvalues --   -0.88270  -0.86208  -0.85800  -0.85543  -0.85207
 Alpha  occ. eigenvalues --   -0.83674  -0.81678  -0.80604  -0.80479  -0.78084
 Alpha  occ. eigenvalues --   -0.75087  -0.73516  -0.71716  -0.71554  -0.70838
 Alpha  occ. eigenvalues --   -0.70738  -0.70555  -0.67207  -0.66100  -0.63660
 Alpha  occ. eigenvalues --   -0.62912  -0.62717  -0.61443  -0.60320  -0.60147
 Alpha  occ. eigenvalues --   -0.57509  -0.57294  -0.56584  -0.56477  -0.56398
 Alpha  occ. eigenvalues --   -0.55813  -0.55503  -0.55102  -0.54954  -0.54296
 Alpha  occ. eigenvalues --   -0.53893  -0.53237  -0.52929  -0.52890  -0.52821
 Alpha  occ. eigenvalues --   -0.52338  -0.52002  -0.51550  -0.51395  -0.50790
 Alpha  occ. eigenvalues --   -0.49679  -0.49445  -0.49414  -0.48909  -0.48327
 Alpha  occ. eigenvalues --   -0.47979  -0.47871  -0.47607  -0.46997  -0.46661
 Alpha  occ. eigenvalues --   -0.46250  -0.45641  -0.45490  -0.45039  -0.44970
 Alpha  occ. eigenvalues --   -0.43888  -0.43652  -0.43446  -0.43121  -0.42851
 Alpha  occ. eigenvalues --   -0.41471  -0.39914  -0.38175  -0.36795  -0.36667
 Alpha  occ. eigenvalues --   -0.36596  -0.36068  -0.35836  -0.35022  -0.34833
 Alpha  occ. eigenvalues --   -0.34170  -0.32471  -0.31181
 Alpha virt. eigenvalues --   -0.16842  -0.16357  -0.14492  -0.13725  -0.12404
 Alpha virt. eigenvalues --   -0.11177  -0.10850  -0.09598  -0.08206  -0.07533
 Alpha virt. eigenvalues --   -0.07170  -0.06790  -0.06058  -0.05349  -0.04764

 Mulliken charges:
               1
     1  P    0.331402
     2  C   -0.592305
     3  C   -0.159521
     4  C   -0.060028
     5  C   -0.098947
     6  C   -0.096291
     7  C   -0.103792
     8  C   -0.086026
     9  C   -0.258518
    10  C   -0.023027
    11  C   -0.110974
    12  C   -0.093705
    13  C   -0.086658
    14  C   -0.084225
    15  H    0.211368
    16  H    0.212194
    17  H    0.160649
    18  H    0.136632
    19  H    0.141201
    20  H    0.132785
    21  H    0.137639
    22  H    0.137906
    23  H    0.132974
    24  H    0.142629
    25  H    0.138698
    26  H    0.152488
    27  Rh  -0.499805
    28  C   -0.042199
    29  C   -0.079439
    30  C   -0.010547
    31  C   -0.101896
    32  C   -0.345609
    33  H    0.185370
    34  H    0.180475
    35  C   -0.212459
    36  C   -0.356836
    37  H    0.177297
    38  C   -0.230462
    39  H    0.211771
    40  H    0.168805
    41  H    0.166987
    42  H    0.173953
    43  H    0.129326
    44  H    0.167300
    45  H    0.169160
    46  H    0.130490
    47  H    0.173825
    48  C    0.033545
    49  C    0.000095
    50  C   -0.029203
    51  C   -0.000047
    52  P    0.344141
    53  C   -0.380806
    54  H    0.149759
    55  H    0.143791
    56  H    0.152374
    57  C   -0.406975
    58  H    0.149963
    59  H    0.148883
    60  H    0.139474
    61  C   -0.408414
    62  H    0.154404
    63  H    0.145858
    64  H    0.139008
    65  C   -0.379921
    66  H    0.154086
    67  H    0.136723
    68  H    0.143209
 Sum of Mulliken charges =   1.00000

 Dipole moment (field-independent basis, Debye):
    X=             -0.7538    Y=              0.6583    Z=              0.4347  Tot=              1.0911
 Quadrupole moment (field-independent basis, Debye-Ang):
   XX=           -165.6148   YY=           -180.5130   ZZ=           -185.8000
   XY=              0.7678   XZ=             -2.0115   YZ=             -3.6177

 Summary of Natural Population Analysis:

                                       Natural Population
                Natural  -----------------------------------------------
    Atom  No    Charge         Core      Valence    Rydberg      Total
 -----------------------------------------------------------------------
      P    1    1.12535      9.99644     3.82737    0.05084    13.87465
      C    2   -0.95714      1.99942     4.93929    0.01843     6.95714
      C    3   -0.34201      1.99900     4.31949    0.02352     6.34201
      C    4   -0.19409      1.99910     4.17973    0.01527     6.19409
      C    5   -0.18801      1.99920     4.17411    0.01470     6.18801
      C    6   -0.17966      1.99920     4.16575    0.01470     6.17966
      C    7   -0.19090      1.99920     4.17694    0.01476     6.19090
      C    8   -0.19933      1.99909     4.18482    0.01542     6.19933
      C    9   -0.35086      1.99900     4.32760    0.02426     6.35086
      C   10   -0.18216      1.99909     4.16752    0.01555     6.18216
      C   11   -0.19679      1.99920     4.18298    0.01462     6.19679
      C   12   -0.17328      1.99921     4.15953    0.01455     6.17328
      C   13   -0.19220      1.99920     4.17834    0.01466     6.19220
      C   14   -0.19241      1.99909     4.17728    0.01604     6.19241
      H   15    0.25946      0.00000     0.73871    0.00183     0.74054
      H   16    0.26037      0.00000     0.73779    0.00184     0.73963
      H   17    0.22359      0.00000     0.77468    0.00173     0.77641
      H   18    0.22367      0.00000     0.77512    0.00121     0.77633
      H   19    0.22386      0.00000     0.77498    0.00117     0.77614
      H   20    0.22193      0.00000     0.77684    0.00123     0.77807
      H   21    0.20749      0.00000     0.79015    0.00235     0.79251
      H   22    0.21978      0.00000     0.77825    0.00197     0.78022
      H   23    0.22260      0.00000     0.77618    0.00122     0.77740
      H   24    0.22436      0.00000     0.77448    0.00116     0.77564
      H   25    0.22477      0.00000     0.77401    0.00123     0.77523
      H   26    0.21752      0.00000     0.78045    0.00203     0.78248
     Rh   27   -0.41961     35.98561     9.40202    0.03198    45.41961
      C   28   -0.16380      1.99906     4.14507    0.01967     6.16380
      C   29   -0.16263      1.99907     4.14358    0.01997     6.16263
      C   30   -0.18255      1.99906     4.16399    0.01951     6.18255
      C   31   -0.14767      1.99907     4.12864    0.01996     6.14767
      C   32   -0.42503      1.99936     4.41384    0.01183     6.42503
      H   33    0.22596      0.00000     0.77201    0.00203     0.77404
      H   34    0.22931      0.00000     0.76884    0.00185     0.77069
      C   35   -0.42033      1.99936     4.40870    0.01227     6.42033
      C   36   -0.42357      1.99936     4.41243    0.01178     6.42357
      H   37    0.22446      0.00000     0.77346    0.00207     0.77554
      C   38   -0.42029      1.99935     4.40859    0.01234     6.42029
      H   39    0.23235      0.00000     0.76572    0.00193     0.76765
      H   40    0.22859      0.00000     0.76993    0.00147     0.77141
      H   41    0.21529      0.00000     0.78274    0.00196     0.78471
      H   42    0.23503      0.00000     0.76310    0.00187     0.76497
      H   43    0.21837      0.00000     0.78015    0.00148     0.78163
      H   44    0.21529      0.00000     0.78274    0.00197     0.78471
      H   45    0.22840      0.00000     0.77010    0.00150     0.77160
      H   46    0.21923      0.00000     0.77928    0.00149     0.78077
      H   47    0.23461      0.00000     0.76350    0.00189     0.76539
      C   48   -0.28543      1.99892     4.26810    0.01841     6.28543
      C   49   -0.27838      1.99892     4.26086    0.01860     6.27838
      C   50    0.01891      1.99890     3.96576    0.01643     5.98109
      C   51    0.01136      1.99890     3.97318    0.01655     5.98864
      P   52    1.09940      9.99649     3.85581    0.04830    13.90060
      C   53   -0.62298      1.99937     4.61447    0.00914     6.62298
      H   54    0.21992      0.00000     0.77800    0.00208     0.78008
      H   55    0.22355      0.00000     0.77480    0.00165     0.77645
      H   56    0.22448      0.00000     0.77380    0.00172     0.77552
      C   57   -0.63058      1.99938     4.62219    0.00901     6.63058
      H   58    0.22669      0.00000     0.77171    0.00160     0.77331
      H   59    0.22809      0.00000     0.77035    0.00156     0.77191
      H   60    0.22139      0.00000     0.77714    0.00147     0.77861
      C   61   -0.63133      1.99938     4.62294    0.00900     6.63133
      H   62    0.22937      0.00000     0.76906    0.00157     0.77063
      H   63    0.22717      0.00000     0.77124    0.00159     0.77283
      H   64    0.22086      0.00000     0.77769    0.00146     0.77914
      C   65   -0.62345      1.99937     4.61536    0.00873     6.62345
      H   66    0.22708      0.00000     0.77123    0.00169     0.77292
      H   67    0.21997      0.00000     0.77843    0.00161     0.78003
      H   68    0.21659      0.00000     0.78155    0.00185     0.78341
 =======================================================================
   * Total *    1.00000    113.95439   169.40450    0.64111   284.00000

 Normal termination of Gaussian 16 at Tue Jan 21 12:58:23 2025.
