 Gaussian 16, Revision B.01,
 Gaussian 16:  ES64L-G16RevB.01 20-Dec-2017

 ------------------------------------------
 # nmr=giao b3lyp/genecp pop=nbo scfcyc=200
 ------------------------------------------

 ---------
 MB-41_SPE
 ---------
 Symbolic Z-matrix:
 Charge =  1 Multiplicity = 1

                         Standard orientation:
 ---------------------------------------------------------------------
 Center     Atomic      Atomic             Coordinates (Angstroms)
 Number     Number       Type             X           Y           Z
 ---------------------------------------------------------------------
      1         15           0        1.502169    0.308811   -0.586810
      2         15           0       -1.225771    0.350700   -1.137180
      3          6           0        0.385949    0.560431   -2.069850
      4          1           0        0.507070   -0.272699   -2.762750
      5          1           0        0.517259    1.496471   -2.613290
      6          6           0        2.042499    1.998801   -0.102840
      7          6           0        2.719489    2.824331   -1.008920
      8          1           0        2.960679    2.466911   -2.002990
      9          6           0        3.099799    4.106581   -0.634840
     10          1           0        3.624509    4.739001   -1.339880
     11          6           0        2.809379    4.577291    0.644230
     12          1           0        3.108879    5.576871    0.933000
     13          6           0        2.136449    3.763891    1.548160
     14          1           0        1.909589    4.127411    2.542490
     15          6           0        1.752319    2.478241    1.176210
     16          1           0        1.219409    1.849191    1.877960
     17          6           0        3.018820   -0.578679   -1.139360
     18          6           0        2.899620   -1.705739   -1.960390
     19          1           0        1.928780   -2.030519   -2.315130
     20          6           0        4.027210   -2.429239   -2.327480
     21          1           0        3.924760   -3.292559   -2.972900
     22          6           0        5.283730   -2.047449   -1.865100
     23          1           0        6.161570   -2.612859   -2.150820
     24          6           0        5.406960   -0.940669   -1.033250
     25          1           0        6.381070   -0.640849   -0.667870
     26          6           0        4.281410   -0.207759   -0.668650
     27          1           0        4.395319    0.656251   -0.027420
     28          6           0       -3.855100   -0.527550   -1.939290
     29          1           0       -3.933780   -1.026680   -0.968090
     30          1           0       -4.270021    0.475000   -1.803880
     31          6           0       -2.817401    2.280470    0.283850
     32          1           0       -2.336681    1.960260    1.213270
     33          1           0       -3.692861    1.638160    0.152070
     34         45           0       -0.171910   -0.780120    0.666940
     35          6           0       -1.879490   -1.467980    2.012440
     36          6           0       -1.706970   -2.396020    1.007040
     37          6           0        1.111460   -2.317329    1.744130
     38          6           0        0.977150   -1.204709    2.549890
     39          6           0       -1.396830   -1.620460    3.442590
     40          1           0       -2.634060   -0.705310    1.852470
     41          1           0       -2.366540   -2.325060    0.149000
     42          6           0       -0.947640   -3.696980    1.096340
     43          6           0        0.356870   -3.622229    1.917270
     44          1           0        2.001600   -2.372039    1.127510
     45          6           0        0.007410   -1.026870    3.692300
     46          1           0        1.793480   -0.488999    2.538200
     47          1           0       -2.105500   -1.117590    4.102530
     48          1           0       -1.419650   -2.672450    3.726130
     49          1           0       -1.600950   -4.477450    1.506310
     50          1           0       -0.710720   -4.012390    0.078010
     51          1           0        0.150510   -3.787570    2.974510
     52          1           0        1.007610   -4.441389    1.607230
     53          1           0       -0.088290    0.044370    3.884080
     54          1           0        0.431840   -1.455039    4.608910
     55          6           0       -1.835061    2.092370   -0.877890
     56          1           0       -2.273371    2.429620   -1.822540
     57          1           0       -0.944281    2.700970   -0.705280
     58          6           0       -2.386780   -0.427500   -2.368090
     59          1           0       -1.983450   -1.422990   -2.573500
     60          1           0       -2.301940    0.149290   -3.294340
     61          6           0       -3.280261    3.734810    0.424650
     62          1           0       -3.761741    4.051870   -0.506120
     63          1           0       -2.404151    4.379470    0.550080
     64          6           0       -4.708570   -1.285140   -2.963740
     65          1           0       -4.622220   -0.791710   -3.937130
     66          1           0       -4.302090   -2.293360   -3.094660
     67          6           0       -4.242111    3.942420    1.594330
     68          1           0       -4.553041    4.985700    1.666940
     69          1           0       -5.144261    3.336470    1.479390
     70          1           0       -3.776501    3.669400    2.544730
     71          6           0       -6.180640   -1.372740   -2.562110
     72          1           0       -6.624500   -0.379380   -2.461060
     73          1           0       -6.758880   -1.917730   -3.309680
     74          1           0       -6.302460   -1.890920   -1.607630
 ---------------------------------------------------------------------

 SCF Done:  E(RB3LYP) =  -1923.98754240     A.U. after   16 cycles

      1  P    Isotropic =   314.3581   Anisotropy =   105.6541

      2  P    Isotropic =   327.7622   Anisotropy =    64.6667

      3  C    Isotropic =   132.7021   Anisotropy =    43.8809

      4  H    Isotropic =    28.3159   Anisotropy =     3.9925

      5  H    Isotropic =    28.9281   Anisotropy =     9.3123

      6  C    Isotropic =    45.5945   Anisotropy =   173.5207

      7  C    Isotropic =    46.0519   Anisotropy =   189.2280

      8  H    Isotropic =    24.3587   Anisotropy =    11.2136

      9  C    Isotropic =    47.4371   Anisotropy =   192.1209

     10  H    Isotropic =    24.0364   Anisotropy =     5.5202

     11  C    Isotropic =    44.1901   Anisotropy =   199.7764

     12  H    Isotropic =    23.8631   Anisotropy =     3.9266

     13  C    Isotropic =    49.2221   Anisotropy =   188.7256

     14  H    Isotropic =    24.0031   Anisotropy =     6.6441

     15  C    Isotropic =    41.8810   Anisotropy =   180.1117

     16  H    Isotropic =    23.5467   Anisotropy =     9.4002

     17  C    Isotropic =    44.7402   Anisotropy =   167.3986

     18  C    Isotropic =    49.8664   Anisotropy =   186.5743

     19  H    Isotropic =    24.0237   Anisotropy =    10.8501

     20  C    Isotropic =    48.8634   Anisotropy =   189.8371

     21  H    Isotropic =    24.0443   Anisotropy =     6.4621

     22  C    Isotropic =    46.2138   Anisotropy =   196.0167

     23  H    Isotropic =    24.1243   Anisotropy =     3.7592

     24  C    Isotropic =    48.7006   Anisotropy =   190.0800

     25  H    Isotropic =    24.3820   Anisotropy =     6.4830

     26  C    Isotropic =    47.1730   Anisotropy =   191.5426

     27  H    Isotropic =    25.0599   Anisotropy =    12.6490

     28  C    Isotropic =   152.5899   Anisotropy =    32.9169

     29  H    Isotropic =    30.7623   Anisotropy =     6.6501

     30  H    Isotropic =    30.5560   Anisotropy =     5.9386

     31  C    Isotropic =   149.2048   Anisotropy =    40.0071

     32  H    Isotropic =    30.3153   Anisotropy =     6.5645

     33  H    Isotropic =    30.6087   Anisotropy =     5.3053

     34  Rh   Isotropic =  -311.6628   Anisotropy =   346.6290

     35  C    Isotropic =    80.3782   Anisotropy =   120.4190

     36  C    Isotropic =    75.5800   Anisotropy =   117.9549

     37  C    Isotropic =    75.4549   Anisotropy =   126.7609

     38  C    Isotropic =    79.9962   Anisotropy =   111.3784

     39  C    Isotropic =   154.0804   Anisotropy =    24.9377

     40  H    Isotropic =    26.8561   Anisotropy =     6.2332

     41  H    Isotropic =    26.0085   Anisotropy =     5.3160

     42  C    Isotropic =   146.8106   Anisotropy =    31.0193

     43  C    Isotropic =   154.3260   Anisotropy =    24.6933

     44  H    Isotropic =    27.6700   Anisotropy =     5.8069

     45  C    Isotropic =   147.9652   Anisotropy =    29.8413

     46  H    Isotropic =    26.6257   Anisotropy =     4.4697

     47  H    Isotropic =    29.7821   Anisotropy =    11.3309

     48  H    Isotropic =    29.7772   Anisotropy =     9.3559

     49  H    Isotropic =    29.0771   Anisotropy =    12.3362

     50  H    Isotropic =    29.0682   Anisotropy =     7.6059

     51  H    Isotropic =    29.8818   Anisotropy =     9.3040

     52  H    Isotropic =    30.0582   Anisotropy =    11.0530

     53  H    Isotropic =    29.0046   Anisotropy =     8.2093

     54  H    Isotropic =    29.0514   Anisotropy =    12.5421

     55  C    Isotropic =   146.6629   Anisotropy =    34.8456

     56  H    Isotropic =    30.3028   Anisotropy =     6.1536

     57  H    Isotropic =    30.8753   Anisotropy =     7.8845

     58  C    Isotropic =   144.9630   Anisotropy =    35.4600

     59  H    Isotropic =    30.0027   Anisotropy =     5.3142

     60  H    Isotropic =    30.0128   Anisotropy =     6.6788

     61  C    Isotropic =   154.8308   Anisotropy =    28.2300

     62  H    Isotropic =    30.6565   Anisotropy =     7.2432

     63  H    Isotropic =    30.8833   Anisotropy =     5.7595

     64  C    Isotropic =   154.1401   Anisotropy =    28.9618

     65  H    Isotropic =    30.4631   Anisotropy =     7.1062

     66  H    Isotropic =    30.4613   Anisotropy =     6.1029

     67  C    Isotropic =   169.0585   Anisotropy =    28.9682

     68  H    Isotropic =    30.6250   Anisotropy =    11.9893

     69  H    Isotropic =    31.0438   Anisotropy =     8.4644

     70  H    Isotropic =    31.0376   Anisotropy =     7.1788

     71  C    Isotropic =   169.0358   Anisotropy =    29.0161

     72  H    Isotropic =    30.9869   Anisotropy =     8.4545

     73  H    Isotropic =    30.5316   Anisotropy =    11.9880

     74  H    Isotropic =    31.0140   Anisotropy =     7.3932

 The electronic state is 1-A.
 Alpha  occ. eigenvalues --  -77.24203 -77.23321 -10.30527 -10.30088 -10.29969
 Alpha  occ. eigenvalues --  -10.29542 -10.29429 -10.29242 -10.29146 -10.29141
 Alpha  occ. eigenvalues --  -10.29101 -10.28985 -10.28950 -10.28715 -10.28417
 Alpha  occ. eigenvalues --  -10.28258 -10.28173 -10.28151 -10.27839 -10.27829
 Alpha  occ. eigenvalues --  -10.27813 -10.27703 -10.27646 -10.27612 -10.27561
 Alpha  occ. eigenvalues --  -10.27500 -10.27136 -10.25865 -10.25634 -10.23983
 Alpha  occ. eigenvalues --  -10.23944  -6.70186  -6.69364  -4.86468  -4.86411
 Alpha  occ. eigenvalues --   -4.86084  -4.85663  -4.85551  -4.85267  -3.31901
 Alpha  occ. eigenvalues --   -2.08799  -2.08119  -2.05361  -0.97289  -0.96498
 Alpha  occ. eigenvalues --   -0.94740  -0.91893  -0.89796  -0.89468  -0.89134
 Alpha  occ. eigenvalues --   -0.88271  -0.86222  -0.85909  -0.85590  -0.85281
 Alpha  occ. eigenvalues --   -0.82875  -0.82359  -0.80622  -0.78094  -0.76189
 Alpha  occ. eigenvalues --   -0.74004  -0.73201  -0.71782  -0.71350  -0.70842
 Alpha  occ. eigenvalues --   -0.70680  -0.68148  -0.67652  -0.67270  -0.66179
 Alpha  occ. eigenvalues --   -0.66094  -0.62944  -0.62675  -0.61466  -0.60421
 Alpha  occ. eigenvalues --   -0.58855  -0.57711  -0.57405  -0.56904  -0.56617
 Alpha  occ. eigenvalues --   -0.56537  -0.56009  -0.55732  -0.55485  -0.54379
 Alpha  occ. eigenvalues --   -0.53916  -0.53288  -0.53274  -0.52943  -0.52901
 Alpha  occ. eigenvalues --   -0.52772  -0.52401  -0.52131  -0.51860  -0.50879
 Alpha  occ. eigenvalues --   -0.50095  -0.49081  -0.48898  -0.48404  -0.48287
 Alpha  occ. eigenvalues --   -0.47899  -0.47636  -0.46701  -0.46421  -0.46322
 Alpha  occ. eigenvalues --   -0.46242  -0.45882  -0.45635  -0.45313  -0.45125
 Alpha  occ. eigenvalues --   -0.43990  -0.43702  -0.43545  -0.43399  -0.43272
 Alpha  occ. eigenvalues --   -0.42897  -0.42274  -0.42126  -0.41972  -0.41233
 Alpha  occ. eigenvalues --   -0.41068  -0.38295  -0.36943  -0.36797  -0.36763
 Alpha  occ. eigenvalues --   -0.36106  -0.35743  -0.35013  -0.34893  -0.34135
 Alpha  occ. eigenvalues --   -0.31118
 Alpha virt. eigenvalues --   -0.16581  -0.15023  -0.14059  -0.12546  -0.12140
 Alpha virt. eigenvalues --   -0.11200  -0.09631  -0.08576  -0.07826  -0.07403
 Alpha virt. eigenvalues --   -0.06768  -0.06323  -0.06105  -0.05585  -0.04988

 Mulliken charges:
               1
     1  P    0.316710
     2  P    0.430038
     3  C   -0.577630
     4  H    0.202928
     5  H    0.210455
     6  C   -0.260074
     7  C   -0.081129
     8  H    0.151368
     9  C   -0.088927
    10  H    0.139267
    11  C   -0.089174
    12  H    0.143152
    13  C   -0.120086
    14  H    0.133114
    15  C   -0.018755
    16  H    0.153451
    17  C   -0.131476
    18  C   -0.080622
    19  H    0.124797
    20  C   -0.098785
    21  H    0.133511
    22  C   -0.099056
    23  H    0.141575
    24  C   -0.097765
    25  H    0.137235
    26  C   -0.077071
    27  H    0.160384
    28  C   -0.274015
    29  H    0.122485
    30  H    0.139353
    31  C   -0.258613
    32  H    0.122898
    33  H    0.126121
    34  Rh  -0.524240
    35  C   -0.002983
    36  C   -0.120225
    37  C   -0.026932
    38  C   -0.095492
    39  C   -0.348430
    40  H    0.180245
    41  H    0.178985
    42  C   -0.218188
    43  C   -0.354624
    44  H    0.209859
    45  C   -0.218219
    46  H    0.186847
    47  H    0.170555
    48  H    0.167872
    49  H    0.172469
    50  H    0.129798
    51  H    0.168570
    52  H    0.169929
    53  H    0.127712
    54  H    0.173493
    55  C   -0.316070
    56  H    0.161026
    57  H    0.170327
    58  C   -0.296435
    59  H    0.144258
    60  H    0.167890
    61  C   -0.203595
    62  H    0.116651
    63  H    0.116295
    64  C   -0.203725
    65  H    0.118752
    66  H    0.114247
    67  C   -0.349170
    68  H    0.143120
    69  H    0.116235
    70  H    0.110267
    71  C   -0.348510
    72  H    0.117939
    73  H    0.144248
    74  H    0.113583
 Sum of Mulliken charges =   1.00000

 Dipole moment (field-independent basis, Debye):
    X=              0.7079    Y=              0.1251    Z=             -1.0435  Tot=              1.2671
 Quadrupole moment (field-independent basis, Debye-Ang):
   XX=           -175.2711   YY=           -182.9829   ZZ=           -194.9948
   XY=              3.0008   XZ=             -0.4481   YZ=              1.2231

 Summary of Natural Population Analysis:

                                       Natural Population
                Natural  -----------------------------------------------
    Atom  No    Charge         Core      Valence    Rydberg      Total
 -----------------------------------------------------------------------
      P    1    1.12550      9.99647     3.82624    0.05179    13.87450
      P    2    1.10662      9.99686     3.85072    0.04580    13.89338
      C    3   -0.97042      1.99944     4.95371    0.01728     6.97042
      H    4    0.25679      0.00000     0.74161    0.00160     0.74321
      H    5    0.25323      0.00000     0.74478    0.00199     0.74677
      C    6   -0.35302      1.99900     4.32951    0.02451     6.35302
      C    7   -0.19212      1.99909     4.17683    0.01620     6.19212
      H    8    0.21805      0.00000     0.77990    0.00205     0.78195
      C    9   -0.19137      1.99920     4.17754    0.01463     6.19137
      H   10    0.22494      0.00000     0.77384    0.00123     0.77506
      C   11   -0.17342      1.99921     4.15965    0.01456     6.17342
      H   12    0.22455      0.00000     0.77429    0.00116     0.77545
      C   13   -0.19717      1.99920     4.18326    0.01471     6.19717
      H   14    0.22277      0.00000     0.77601    0.00122     0.77723
      C   15   -0.18593      1.99909     4.17120    0.01564     6.18593
      H   16    0.21965      0.00000     0.77817    0.00218     0.78035
      C   17   -0.34281      1.99900     4.31987    0.02395     6.34281
      C   18   -0.19652      1.99909     4.18216    0.01526     6.19652
      H   19    0.20766      0.00000     0.79033    0.00201     0.79234
      C   20   -0.19079      1.99920     4.17687    0.01473     6.19079
      H   21    0.22218      0.00000     0.77659    0.00123     0.77782
      C   22   -0.17936      1.99920     4.16546    0.01469     6.17936
      H   23    0.22396      0.00000     0.77488    0.00117     0.77604
      C   24   -0.18827      1.99920     4.17437    0.01470     6.18827
      H   25    0.22374      0.00000     0.77505    0.00121     0.77626
      C   26   -0.19425      1.99910     4.17991    0.01525     6.19425
      H   27    0.22301      0.00000     0.77523    0.00176     0.77699
      C   28   -0.38691      1.99942     4.37641    0.01108     6.38691
      H   29    0.19339      0.00000     0.80423    0.00238     0.80661
      H   30    0.19851      0.00000     0.79943    0.00205     0.80149
      C   31   -0.38376      1.99942     4.37353    0.01081     6.38376
      H   32    0.20140      0.00000     0.79667    0.00193     0.79860
      H   33    0.19507      0.00000     0.80266    0.00227     0.80493
     Rh   34   -0.41694     35.98572     9.40547    0.02575    45.41694
      C   35   -0.18157      1.99906     4.16275    0.01975     6.18157
      C   36   -0.15180      1.99907     4.13229    0.02045     6.15180
      C   37   -0.16032      1.99906     4.14197    0.01929     6.16032
      C   38   -0.17047      1.99907     4.15132    0.02008     6.17047
      C   39   -0.42331      1.99936     4.41210    0.01185     6.42331
      H   40    0.22730      0.00000     0.77068    0.00202     0.77270
      H   41    0.22116      0.00000     0.77685    0.00199     0.77884
      C   42   -0.41890      1.99935     4.40679    0.01276     6.41890
      C   43   -0.42416      1.99936     4.41287    0.01193     6.42416
      H   44    0.23125      0.00000     0.76674    0.00201     0.76875
      C   45   -0.41965      1.99936     4.40789    0.01241     6.41965
      H   46    0.22499      0.00000     0.77308    0.00193     0.77501
      H   47    0.22901      0.00000     0.76956    0.00143     0.77099
      H   48    0.21505      0.00000     0.78303    0.00192     0.78495
      H   49    0.23360      0.00000     0.76459    0.00182     0.76640
      H   50    0.21529      0.00000     0.78318    0.00153     0.78471
      H   51    0.21462      0.00000     0.78346    0.00192     0.78538
      H   52    0.22948      0.00000     0.76913    0.00139     0.77052
      H   53    0.21613      0.00000     0.78234    0.00153     0.78387
      H   54    0.23438      0.00000     0.76380    0.00182     0.76562
      C   55   -0.66929      1.99939     4.65597    0.01393     6.66929
      H   56    0.22570      0.00000     0.77173    0.00257     0.77430
      H   57    0.23362      0.00000     0.76401    0.00237     0.76638
      C   58   -0.66546      1.99938     4.65284    0.01324     6.66546
      H   59    0.22896      0.00000     0.76916    0.00188     0.77104
      H   60    0.22592      0.00000     0.77151    0.00257     0.77408
      C   61   -0.37965      1.99945     4.37010    0.01010     6.37965
      H   62    0.19623      0.00000     0.80216    0.00161     0.80377
      H   63    0.19540      0.00000     0.80298    0.00162     0.80460
      C   64   -0.37834      1.99945     4.36862    0.01027     6.37834
      H   65    0.19784      0.00000     0.80056    0.00160     0.80216
      H   66    0.19382      0.00000     0.80445    0.00173     0.80618
      C   67   -0.58788      1.99947     4.58249    0.00592     6.58788
      H   68    0.21633      0.00000     0.78262    0.00105     0.78367
      H   69    0.20024      0.00000     0.79839    0.00136     0.79976
      H   70    0.19753      0.00000     0.80109    0.00138     0.80247
      C   71   -0.58863      1.99947     4.58318    0.00598     6.58863
      H   72    0.20109      0.00000     0.79756    0.00135     0.79891
      H   73    0.21732      0.00000     0.78164    0.00105     0.78268
      H   74    0.19925      0.00000     0.79940    0.00135     0.80075
 =======================================================================
   * Total *    1.00000    113.95720   175.42127    0.62153   290.00000

 Normal termination of Gaussian 16 at Tue Jan 21 10:54:31 2025.
