 Gaussian 16, Revision B.01,
 Gaussian 16:  ES64L-G16RevB.01 20-Dec-2017

 ------------------------------------------
 # nmr=giao b3lyp/genecp pop=nbo scfcyc=200
 ------------------------------------------

 ---------
 MB-44_SPE
 ---------
 Symbolic Z-matrix:
 Charge =  1 Multiplicity = 1

                         Standard orientation:
 ---------------------------------------------------------------------
 Center     Atomic      Atomic             Coordinates (Angstroms)
 Number     Number       Type             X           Y           Z
 ---------------------------------------------------------------------
      1          6           0       -0.028380    0.934540    1.936389
      2          1           0       -0.067830    0.243160    2.779419
      3          1           0       -0.023191    1.960460    2.305809
      4          6           0       -1.830581    2.132539   -0.033921
      5          1           0       -2.211291    2.756179    0.780379
      6          1           0       -0.894171    2.577500   -0.379861
      7          6           0        2.746990   -0.138669    1.995069
      8          1           0        2.861550    0.621162    2.773459
      9          1           0        2.364331   -1.040649    2.480969
     10          6           0       -1.376509   -2.670480   -1.075151
     11          1           0       -2.157319   -2.580881   -0.329111
     12          6           0       -1.355369   -1.733590   -2.086331
     13          1           0       -2.147720   -0.992121   -2.096991
     14          6           0       -0.554629   -1.801760   -3.363191
     15          1           0       -1.102829   -2.385120   -4.113291
     16          1           0       -0.490080   -0.788920   -3.766521
     17          6           0        0.871111   -2.372659   -3.197141
     18          1           0        1.482661   -2.018119   -4.028291
     19          1           0        0.857592   -3.459329   -3.279631
     20          6           0        1.544021   -1.969519   -1.897741
     21          1           0        2.334711   -1.232919   -1.992631
     22          6           0        1.504581   -2.685629   -0.716731
     23          1           0        2.284821   -2.482369    0.008169
     24          6           0        0.739282   -3.958149   -0.452371
     25          1           0        1.334072   -4.819579   -0.781191
     26          1           0        0.634772   -4.063730    0.629619
     27          6           0       -0.658518   -4.005670   -1.100881
     28          1           0       -0.591738   -4.367100   -2.126611
     29          1           0       -1.266058   -4.735600   -0.563441
     30         15           0       -1.371850    0.488480    0.717169
     31         15           0        1.403460    0.429501    0.839099
     32         45           0        0.055620   -0.988630   -0.495511
     33          6           0        2.034399    1.991291    0.096699
     34          6           0        2.467469    3.049641    0.903879
     35          6           0        2.092239    2.123561   -1.292351
     36          6           0        2.950788    4.217562    0.327489
     37          1           0        2.432109    2.971021    1.984389
     38          6           0        2.577418    3.294941   -1.867351
     39          1           0        1.751909    1.311811   -1.923151
     40          6           0        3.007098    4.340932   -1.059061
     41          1           0        3.284208    5.031502    0.958969
     42          1           0        2.619848    3.388071   -2.945251
     43          1           0        3.385618    5.251632   -1.505761
     44          6           0       -2.858350   -0.022641    1.673169
     45          6           0       -3.876620   -0.732112    1.027009
     46          6           0       -3.010980    0.308169    3.022849
     47          6           0       -5.026539   -1.098442    1.717299
     48          1           0       -3.783360   -0.995842   -0.019121
     49          6           0       -4.159460   -0.066382    3.712149
     50          1           0       -2.241890    0.861809    3.546689
     51          6           0       -5.167620   -0.770102    3.061739
     52          1           0       -5.809209   -1.644443    1.205819
     53          1           0       -4.265930    0.194008    4.757709
     54          1           0       -6.060459   -1.060873    3.600469
     55          6           0        4.086090   -0.417908    1.306809
     56          1           0        4.458440    0.499172    0.841619
     57          1           0        3.969531   -1.148138    0.502879
     58          6           0        5.140240   -0.952907    2.280149
     59          1           0        5.273010   -0.230737    3.100759
     60          1           0        4.771581   -1.877448    2.732959
     61          6           0       -2.836681    2.052729   -1.182901
     62          1           0       -3.766271    1.591768   -0.835451
     63          1           0       -2.447991    1.424529   -1.987461
     64          6           0       -3.156902    3.429129   -1.772451
     65          1           0       -3.531902    4.086689   -0.973221
     66          1           0       -2.232602    3.880629   -2.143021
     67          7           0        6.371391   -1.269347    1.560519
     68          1           0        6.860450   -0.428297    1.275179
     69          1           0        7.007301   -1.807187    2.136649
     70          7           0       -4.071372    3.289898   -2.904331
     71          1           0       -5.009681    3.062658   -2.594301
     72          1           0       -4.131732    4.149938   -3.435781
 ---------------------------------------------------------------------

 SCF Done:  E(RB3LYP) =  -1956.06643273     A.U. after   16 cycles

      1  C    Isotropic =   137.2248   Anisotropy =    40.8904

      2  H    Isotropic =    28.4625   Anisotropy =     5.8418

      3  H    Isotropic =    28.8759   Anisotropy =    10.2832

      4  C    Isotropic =   145.1829   Anisotropy =    29.2506

      5  H    Isotropic =    30.5998   Anisotropy =     5.9495

      6  H    Isotropic =    30.8471   Anisotropy =     8.8320

      7  C    Isotropic =   148.5343   Anisotropy =    31.9018

      8  H    Isotropic =    29.6432   Anisotropy =     7.1760

      9  H    Isotropic =    30.2104   Anisotropy =     4.9080

     10  C    Isotropic =    74.4768   Anisotropy =   129.3019

     11  H    Isotropic =    26.6361   Anisotropy =     7.0914

     12  C    Isotropic =    79.1153   Anisotropy =   114.9347

     13  H    Isotropic =    25.8136   Anisotropy =     4.5113

     14  C    Isotropic =   147.8265   Anisotropy =    29.7832

     15  H    Isotropic =    28.9213   Anisotropy =    12.3866

     16  H    Isotropic =    28.8713   Anisotropy =     7.7511

     17  C    Isotropic =   154.0629   Anisotropy =    24.7563

     18  H    Isotropic =    29.6922   Anisotropy =    11.4242

     19  H    Isotropic =    29.6908   Anisotropy =     9.3843

     20  C    Isotropic =    82.6722   Anisotropy =   117.4799

     21  H    Isotropic =    26.7998   Anisotropy =     6.1763

     22  C    Isotropic =    77.3473   Anisotropy =   115.6797

     23  H    Isotropic =    26.1484   Anisotropy =     5.8926

     24  C    Isotropic =   146.8232   Anisotropy =    31.4922

     25  H    Isotropic =    29.0557   Anisotropy =    12.3938

     26  H    Isotropic =    29.0970   Anisotropy =     7.5018

     27  C    Isotropic =   154.1150   Anisotropy =    25.0840

     28  H    Isotropic =    29.7574   Anisotropy =     9.0561

     29  H    Isotropic =    29.9015   Anisotropy =    11.4061

     30  P    Isotropic =   327.4463   Anisotropy =    56.8685

     31  P    Isotropic =   319.4722   Anisotropy =    78.3833

     32  Rh   Isotropic =  -317.2761   Anisotropy =   350.1996

     33  C    Isotropic =    46.0259   Anisotropy =   176.4248

     34  C    Isotropic =    49.6278   Anisotropy =   187.2997

     35  C    Isotropic =    41.7559   Anisotropy =   178.2937

     36  C    Isotropic =    47.7306   Anisotropy =   191.5596

     37  H    Isotropic =    24.2981   Anisotropy =    10.7931

     38  C    Isotropic =    48.9375   Anisotropy =   188.8942

     39  H    Isotropic =    23.5701   Anisotropy =     9.4172

     40  C    Isotropic =    44.5618   Anisotropy =   198.5911

     41  H    Isotropic =    24.0376   Anisotropy =     5.4945

     42  H    Isotropic =    24.0458   Anisotropy =     6.6393

     43  H    Isotropic =    23.9339   Anisotropy =     4.0320

     44  C    Isotropic =    44.6824   Anisotropy =   173.7968

     45  C    Isotropic =    46.5783   Anisotropy =   181.8189

     46  C    Isotropic =    51.0668   Anisotropy =   181.6927

     47  C    Isotropic =    49.3117   Anisotropy =   189.8177

     48  H    Isotropic =    24.7566   Anisotropy =    10.1532

     49  C    Isotropic =    47.8126   Anisotropy =   191.6057

     50  H    Isotropic =    24.6330   Anisotropy =    12.2709

     51  C    Isotropic =    45.9414   Anisotropy =   197.5837

     52  H    Isotropic =    24.1924   Anisotropy =     6.9334

     53  H    Isotropic =    24.1071   Anisotropy =     6.0619

     54  H    Isotropic =    24.0693   Anisotropy =     3.9793

     55  C    Isotropic =   153.1452   Anisotropy =    34.7366

     56  H    Isotropic =    31.1526   Anisotropy =     7.1310

     57  H    Isotropic =    30.6346   Anisotropy =     6.5430

     58  C    Isotropic =   135.8813   Anisotropy =    41.7798

     59  H    Isotropic =    28.9849   Anisotropy =     5.9740

     60  H    Isotropic =    29.4310   Anisotropy =     4.4823

     61  C    Isotropic =   152.1854   Anisotropy =    33.8063

     62  H    Isotropic =    30.7687   Anisotropy =     5.6477

     63  H    Isotropic =    30.1188   Anisotropy =     5.0215

     64  C    Isotropic =   135.9778   Anisotropy =    41.9625

     65  H    Isotropic =    29.3347   Anisotropy =     5.6702

     66  H    Isotropic =    29.7948   Anisotropy =     4.8721

     67  N    Isotropic =   226.3406   Anisotropy =    41.0133

     68  H    Isotropic =    31.8740   Anisotropy =    12.0123

     69  H    Isotropic =    31.0548   Anisotropy =    16.4493

     70  N    Isotropic =   226.4807   Anisotropy =    40.5802

     71  H    Isotropic =    31.7548   Anisotropy =    12.7487

     72  H    Isotropic =    31.0659   Anisotropy =    16.2099

 The electronic state is 1-A.
 Alpha  occ. eigenvalues --  -77.23810 -77.23627 -14.37499 -14.37450 -10.30582
 Alpha  occ. eigenvalues --  -10.29954 -10.29849 -10.29527 -10.29301 -10.29252
 Alpha  occ. eigenvalues --  -10.29137 -10.29007 -10.29006 -10.28996 -10.28792
 Alpha  occ. eigenvalues --  -10.28658 -10.28639 -10.28344 -10.28191 -10.28148
 Alpha  occ. eigenvalues --  -10.28133 -10.28056 -10.27809 -10.27787 -10.27693
 Alpha  occ. eigenvalues --  -10.27592 -10.27591 -10.27374 -10.27364 -10.27071
 Alpha  occ. eigenvalues --  -10.26782  -6.69826  -6.69641  -4.86115  -4.86030
 Alpha  occ. eigenvalues --   -4.85954  -4.85826  -4.85727  -4.85538  -3.31848
 Alpha  occ. eigenvalues --   -2.08763  -2.08085  -2.05261  -0.97076  -0.96804
 Alpha  occ. eigenvalues --   -0.96779  -0.96627  -0.94631  -0.90992  -0.89371
 Alpha  occ. eigenvalues --   -0.89127  -0.88140  -0.86649  -0.86083  -0.85820
 Alpha  occ. eigenvalues --   -0.85565  -0.84539  -0.80488  -0.78787  -0.77948
 Alpha  occ. eigenvalues --   -0.76819  -0.72888  -0.72202  -0.71601  -0.71297
 Alpha  occ. eigenvalues --   -0.70671  -0.69274  -0.68874  -0.67100  -0.66707
 Alpha  occ. eigenvalues --   -0.66055  -0.62807  -0.62334  -0.61593  -0.60376
 Alpha  occ. eigenvalues --   -0.58896  -0.58660  -0.57469  -0.57135  -0.56869
 Alpha  occ. eigenvalues --   -0.56482  -0.56341  -0.56301  -0.55942  -0.55561
 Alpha  occ. eigenvalues --   -0.55493  -0.54822  -0.53760  -0.53698  -0.53267
 Alpha  occ. eigenvalues --   -0.53112  -0.52960  -0.52701  -0.52684  -0.51521
 Alpha  occ. eigenvalues --   -0.51051  -0.49776  -0.48924  -0.48566  -0.48351
 Alpha  occ. eigenvalues --   -0.48096  -0.47742  -0.47642  -0.46979  -0.46584
 Alpha  occ. eigenvalues --   -0.46157  -0.46053  -0.45722  -0.45619  -0.45275
 Alpha  occ. eigenvalues --   -0.44114  -0.44003  -0.43696  -0.43330  -0.43162
 Alpha  occ. eigenvalues --   -0.42811  -0.42644  -0.42511  -0.41272  -0.37820
 Alpha  occ. eigenvalues --   -0.36880  -0.36742  -0.36602  -0.36241  -0.35892
 Alpha  occ. eigenvalues --   -0.35172  -0.34839  -0.34091  -0.32316  -0.32268
 Alpha  occ. eigenvalues --   -0.31037
 Alpha virt. eigenvalues --   -0.16448  -0.14627  -0.13809  -0.12532  -0.12124
 Alpha virt. eigenvalues --   -0.11792  -0.09445  -0.08397  -0.07897  -0.06912
 Alpha virt. eigenvalues --   -0.06671  -0.06148  -0.05703  -0.05479  -0.04837

 Mulliken charges:
               1
     1  C   -0.575478
     2  H    0.203215
     3  H    0.211432
     4  C   -0.232653
     5  H    0.156074
     6  H    0.157949
     7  C   -0.317905
     8  H    0.163418
     9  H    0.157675
    10  C   -0.025256
    11  H    0.192856
    12  C   -0.103747
    13  H    0.192328
    14  C   -0.231122
    15  H    0.173252
    16  H    0.136060
    17  C   -0.354243
    18  H    0.170104
    19  H    0.168745
    20  C   -0.019994
    21  H    0.186037
    22  C   -0.088811
    23  H    0.177486
    24  C   -0.226347
    25  H    0.172687
    26  H    0.131799
    27  C   -0.348719
    28  H    0.169603
    29  H    0.170349
    30  P    0.283098
    31  P    0.368406
    32  Rh  -0.538537
    33  C   -0.224704
    34  C   -0.088715
    35  C   -0.009337
    36  C   -0.105071
    37  H    0.139125
    38  C   -0.119084
    39  H    0.146354
    40  C   -0.088316
    41  H    0.136021
    42  H    0.133864
    43  H    0.143957
    44  C   -0.081348
    45  C   -0.160051
    46  C   -0.085040
    47  C   -0.093551
    48  H    0.176567
    49  C   -0.073296
    50  H    0.141976
    51  C   -0.098415
    52  H    0.133444
    53  H    0.134905
    54  H    0.140531
    55  C   -0.196772
    56  H    0.145633
    57  H    0.136338
    58  C   -0.240286
    59  H    0.109899
    60  H    0.121007
    61  C   -0.215486
    62  H    0.133170
    63  H    0.119546
    64  C   -0.252383
    65  H    0.113184
    66  H    0.124854
    67  N   -0.403078
    68  H    0.200996
    69  H    0.214967
    70  N   -0.406494
    71  H    0.200689
    72  H    0.214637
 Sum of Mulliken charges =   1.00000

 Dipole moment (field-independent basis, Debye):
    X=             -0.0216    Y=              1.7439    Z=              2.4781  Tot=              3.0303
 Quadrupole moment (field-independent basis, Debye-Ang):
   XX=           -162.8335   YY=           -179.3355   ZZ=           -189.4712
   XY=              6.3828   XZ=              2.5208   YZ=              0.8481

 Summary of Natural Population Analysis:

                                       Natural Population
                Natural  -----------------------------------------------
    Atom  No    Charge         Core      Valence    Rydberg      Total
 -----------------------------------------------------------------------
      C    1   -0.98187      1.99944     4.96666    0.01577     6.98187
      H    2    0.26105      0.00000     0.73732    0.00163     0.73895
      H    3    0.25060      0.00000     0.74716    0.00224     0.74940
      C    4   -0.65882      1.99938     4.64555    0.01389     6.65882
      H    5    0.22546      0.00000     0.77142    0.00311     0.77454
      H    6    0.23236      0.00000     0.76551    0.00213     0.76764
      C    7   -0.66804      1.99938     4.65503    0.01364     6.66804
      H    8    0.22485      0.00000     0.77215    0.00300     0.77515
      H    9    0.23213      0.00000     0.76615    0.00173     0.76787
      C   10   -0.16320      1.99905     4.14468    0.01946     6.16320
      H   11    0.22744      0.00000     0.77029    0.00228     0.77256
      C   12   -0.16515      1.99906     4.14579    0.02030     6.16515
      H   13    0.22548      0.00000     0.77248    0.00204     0.77452
      C   14   -0.42161      1.99936     4.40972    0.01253     6.42161
      H   15    0.23482      0.00000     0.76335    0.00182     0.76518
      H   16    0.21985      0.00000     0.77860    0.00155     0.78015
      C   17   -0.42367      1.99936     4.41250    0.01180     6.42367
      H   18    0.22880      0.00000     0.76980    0.00140     0.77120
      H   19    0.21507      0.00000     0.78300    0.00193     0.78493
      C   20   -0.17924      1.99906     4.16031    0.01988     6.17924
      H   21    0.22858      0.00000     0.76975    0.00167     0.77142
      C   22   -0.14918      1.99906     4.12994    0.02018     6.14918
      H   23    0.22210      0.00000     0.77583    0.00207     0.77790
      C   24   -0.41859      1.99935     4.40650    0.01274     6.41859
      H   25    0.23436      0.00000     0.76382    0.00182     0.76564
      H   26    0.21639      0.00000     0.78202    0.00159     0.78361
      C   27   -0.42491      1.99936     4.41350    0.01205     6.42491
      H   28    0.21454      0.00000     0.78352    0.00195     0.78546
      H   29    0.22958      0.00000     0.76902    0.00140     0.77042
      P   30    1.10984      9.99674     3.84562    0.04779    13.89016
      P   31    1.11961      9.99665     3.83365    0.05009    13.88039
     Rh   32   -0.40464     35.98566     9.39335    0.02563    45.40464
      C   33   -0.35057      1.99900     4.32714    0.02443     6.35057
      C   34   -0.19756      1.99909     4.18215    0.01632     6.19756
      C   35   -0.18603      1.99909     4.17148    0.01546     6.18603
      C   36   -0.19057      1.99920     4.17667    0.01470     6.19057
      H   37    0.20912      0.00000     0.78879    0.00209     0.79088
      C   38   -0.19461      1.99920     4.18073    0.01468     6.19461
      H   39    0.22163      0.00000     0.77652    0.00185     0.77837
      C   40   -0.17568      1.99921     4.16184    0.01463     6.17568
      H   41    0.22376      0.00000     0.77500    0.00124     0.77624
      H   42    0.22303      0.00000     0.77576    0.00122     0.77697
      H   43    0.22426      0.00000     0.77458    0.00117     0.77574
      C   44   -0.33990      1.99901     4.31847    0.02242     6.33990
      C   45   -0.19740      1.99909     4.18297    0.01534     6.19740
      C   46   -0.19578      1.99910     4.18095    0.01574     6.19578
      C   47   -0.19099      1.99920     4.17715    0.01464     6.19099
      H   48    0.21144      0.00000     0.78648    0.00208     0.78856
      C   49   -0.18802      1.99920     4.17421    0.01460     6.18802
      H   50    0.20970      0.00000     0.78829    0.00202     0.79030
      C   51   -0.17846      1.99920     4.16468    0.01457     6.17846
      H   52    0.22292      0.00000     0.77586    0.00122     0.77708
      H   53    0.22297      0.00000     0.77580    0.00123     0.77703
      H   54    0.22407      0.00000     0.77476    0.00117     0.77593
      C   55   -0.39813      1.99941     4.38559    0.01313     6.39813
      H   56    0.20360      0.00000     0.79437    0.00203     0.79640
      H   57    0.20628      0.00000     0.79124    0.00248     0.79372
      C   58   -0.19885      1.99939     4.18534    0.01412     6.19885
      H   59    0.16020      0.00000     0.83762    0.00218     0.83980
      H   60    0.18214      0.00000     0.81588    0.00198     0.81786
      C   61   -0.39780      1.99941     4.38527    0.01311     6.39780
      H   62    0.19806      0.00000     0.79976    0.00217     0.80194
      H   63    0.20792      0.00000     0.79006    0.00202     0.79208
      C   64   -0.19878      1.99939     4.18539    0.01401     6.19878
      H   65    0.16101      0.00000     0.83683    0.00215     0.83899
      H   66    0.18277      0.00000     0.81540    0.00182     0.81723
      N   67   -0.81103      1.99962     5.79594    0.01547     7.81103
      H   68    0.34813      0.00000     0.64947    0.00240     0.65187
      H   69    0.35930      0.00000     0.63848    0.00223     0.64070
      N   70   -0.81206      1.99962     5.79700    0.01544     7.81206
      H   71    0.34746      0.00000     0.65013    0.00241     0.65254
      H   72    0.35844      0.00000     0.63932    0.00223     0.64156
 =======================================================================
   * Total *    1.00000    113.95734   175.38736    0.65531   290.00000

 Normal termination of Gaussian 16 at Tue Jan 21 11:05:53 2025.
