 Gaussian 16, Revision B.01,
 Gaussian 16:  ES64L-G16RevB.01 20-Dec-2017

 ------------------------------------------
 # nmr=giao b3lyp/genecp pop=nbo scfcyc=200
 ------------------------------------------

 ---------
 MB-59_SPE
 ---------
 Symbolic Z-matrix:
 Charge =  1 Multiplicity = 1

                         Standard orientation:
 ---------------------------------------------------------------------
 Center     Atomic      Atomic             Coordinates (Angstroms)
 Number     Number       Type             X           Y           Z
 ---------------------------------------------------------------------
      1         15           0       -1.177620    0.729480    0.303949
      2          6           0       -1.375461    2.213980   -0.763311
      3          6           0       -0.351721    3.154861   -0.903531
      4          6           0       -0.494042    4.218770   -1.788491
      5          6           0       -1.650822    4.348490   -2.548971
      6          6           0       -2.668572    3.407580   -2.424571
      7          6           0       -2.532511    2.343240   -1.541281
      8          1           0       -3.339251    1.626659   -1.448011
      9          1           0       -3.572452    3.502789   -3.013041
     10          1           0       -1.759622    5.178480   -3.235441
     11          1           0        0.302598    4.945991   -1.882201
     12          1           0        0.565429    3.066931   -0.336141
     13          6           0       -2.792020    0.493179    1.156519
     14          6           0       -3.215780   -0.801811    1.465829
     15          6           0       -4.390440   -1.002721    2.184439
     16          6           0       -5.148090    0.087128    2.598009
     17          6           0       -4.728611    1.380469    2.296739
     18          6           0       -3.555421    1.586669    1.581359
     19          1           0       -3.242671    2.596939    1.349939
     20          1           0       -5.316271    2.230748    2.619329
     21          1           0       -6.064200   -0.068792    3.153569
     22          1           0       -4.713749   -2.009481    2.417439
     23          1           0       -2.624119   -1.651040    1.147369
     24          6           0        0.044009    1.132701    1.665139
     25         15           0        1.400880   -0.040339    1.115329
     26          6           0        2.729519    1.066832    0.463879
     27          6           0        3.074019    2.262382    1.107049
     28          6           0        4.089619    3.067503    0.604409
     29          6           0        4.775219    2.691943   -0.547281
     30          6           0        4.436379    1.511273   -1.197881
     31          6           0        3.417830    0.706352   -0.697901
     32          1           0        3.150140   -0.199338   -1.223801
     33          1           0        4.960269    1.217273   -2.098691
     34          1           0        5.566258    3.320073   -0.936931
     35          1           0        4.346138    3.987803    1.114129
     36          1           0        2.557039    2.576562    2.004549
     37          1           0        0.321639    2.180961    1.757559
     38          1           0       -0.389290    0.804701    2.609489
     39         45           0        0.022690   -1.109689   -0.536631
     40          6           0       -1.636049   -2.103490   -1.738341
     41          6           0       -0.937820   -1.226430   -2.546851
     42          6           0        1.452841   -2.591799   -1.575001
     43          6           0        0.778671   -3.242719   -0.566591
     44          6           0       -1.479699   -3.612860   -1.731211
     45          1           0       -2.552579   -1.730760   -1.295661
     46          1           0       -1.364560   -0.238730   -2.690321
     47          6           0        0.154231   -1.569799   -3.528971
     48          6           0        1.127521   -2.669849   -3.053991
     49          1           0        2.441291   -2.219548   -1.332311
     50          6           0       -0.441688   -4.117959   -0.707681
     51          1           0        1.294961   -3.347789    0.381349
     52          1           0       -2.445528   -4.061520   -1.493211
     53          1           0       -1.228378   -3.962040   -2.732511
     54          1           0       -0.294159   -1.859679   -4.487641
     55          1           0        0.716990   -0.655389   -3.728771
     56          1           0        0.731962   -3.657269   -3.290891
     57          1           0        2.056041   -2.576858   -3.619651
     58          1           0       -0.913768   -4.190260    0.274679
     59          1           0       -0.130768   -5.138699   -0.963601
     60          6           0        2.096390   -0.887628    2.679119
     61          6           0        2.525110    0.135342    3.739409
     62          1           0        1.703180    0.785031    4.047359
     63          1           0        2.864440   -0.399068    4.630859
     64          1           0        3.352410    0.757082    3.398689
     65          6           0        0.993831   -1.795019    3.248099
     66          1           0        0.131120   -1.227459    3.602369
     67          1           0        0.641871   -2.523539    2.516679
     68          1           0        1.390231   -2.345319    4.104939
     69          6           0        3.307971   -1.730378    2.249939
     70          1           0        4.110760   -1.112247    1.845919
     71          1           0        3.704001   -2.259568    3.120199
     72          1           0        3.046161   -2.482118    1.503039
 ---------------------------------------------------------------------

 SCF Done:  E(RB3LYP) =  -1997.79352696     A.U. after   16 cycles

      1  P    Isotropic =   315.6841   Anisotropy =   110.8449

      2  C    Isotropic =    45.8604   Anisotropy =   170.3190

      3  C    Isotropic =    49.8225   Anisotropy =   188.0498

      4  C    Isotropic =    49.1303   Anisotropy =   189.8986

      5  C    Isotropic =    46.6289   Anisotropy =   195.6364

      6  C    Isotropic =    48.5901   Anisotropy =   190.7908

      7  C    Isotropic =    48.1096   Anisotropy =   188.7704

      8  H    Isotropic =    24.8488   Anisotropy =    11.3330

      9  H    Isotropic =    24.3231   Anisotropy =     6.0834

     10  H    Isotropic =    24.2147   Anisotropy =     3.9527

     11  H    Isotropic =    24.4945   Anisotropy =     7.8418

     12  H    Isotropic =    24.9467   Anisotropy =     8.5451

     13  C    Isotropic =    43.7031   Anisotropy =   174.6178

     14  C    Isotropic =    43.6050   Anisotropy =   179.0438

     15  C    Isotropic =    49.0907   Anisotropy =   187.6475

     16  C    Isotropic =    44.6227   Anisotropy =   198.4952

     17  C    Isotropic =    47.8585   Anisotropy =   190.6355

     18  C    Isotropic =    46.7747   Anisotropy =   189.0105

     19  H    Isotropic =    24.5603   Anisotropy =    12.3918

     20  H    Isotropic =    24.1867   Anisotropy =     6.1391

     21  H    Isotropic =    23.9290   Anisotropy =     4.0789

     22  H    Isotropic =    23.9752   Anisotropy =     7.1818

     23  H    Isotropic =    23.2632   Anisotropy =     9.6184

     24  C    Isotropic =   133.5116   Anisotropy =    53.9608

     25  P    Isotropic =   308.4396   Anisotropy =   103.0195

     26  C    Isotropic =    46.7304   Anisotropy =   173.7531

     27  C    Isotropic =    47.3544   Anisotropy =   188.5657

     28  C    Isotropic =    48.7443   Anisotropy =   189.8727

     29  C    Isotropic =    45.2383   Anisotropy =   199.1465

     30  C    Isotropic =    49.0267   Anisotropy =   188.5586

     31  C    Isotropic =    41.2981   Anisotropy =   184.0334

     32  H    Isotropic =    23.7979   Anisotropy =     9.5710

     33  H    Isotropic =    24.0401   Anisotropy =     6.7179

     34  H    Isotropic =    23.8639   Anisotropy =     3.5994

     35  H    Isotropic =    23.8837   Anisotropy =     6.0121

     36  H    Isotropic =    24.1115   Anisotropy =    11.2785

     37  H    Isotropic =    27.9912   Anisotropy =     7.7876

     38  H    Isotropic =    28.4390   Anisotropy =     4.4499

     39  Rh   Isotropic =  -332.5090   Anisotropy =   368.4126

     40  C    Isotropic =    83.3217   Anisotropy =   115.4079

     41  C    Isotropic =    74.7437   Anisotropy =   120.3057

     42  C    Isotropic =    79.0946   Anisotropy =   121.9811

     43  C    Isotropic =    72.6512   Anisotropy =   121.8877

     44  C    Isotropic =   154.6000   Anisotropy =    23.7061

     45  H    Isotropic =    27.1828   Anisotropy =     5.5225

     46  H    Isotropic =    27.0282   Anisotropy =     4.5560

     47  C    Isotropic =   147.7890   Anisotropy =    29.2198

     48  C    Isotropic =   154.2820   Anisotropy =    24.2663

     49  H    Isotropic =    26.6115   Anisotropy =     6.0651

     50  C    Isotropic =   147.0344   Anisotropy =    29.3853

     51  H    Isotropic =    25.7310   Anisotropy =     3.0572

     52  H    Isotropic =    29.7314   Anisotropy =    11.3650

     53  H    Isotropic =    29.7664   Anisotropy =     9.5939

     54  H    Isotropic =    29.2899   Anisotropy =    12.4894

     55  H    Isotropic =    29.3740   Anisotropy =     6.8133

     56  H    Isotropic =    29.7689   Anisotropy =     9.6313

     57  H    Isotropic =    29.8048   Anisotropy =    11.4884

     58  H    Isotropic =    28.7672   Anisotropy =     7.3200

     59  H    Isotropic =    28.9386   Anisotropy =    12.5677

     60  C    Isotropic =   137.9965   Anisotropy =    27.6494

     61  C    Isotropic =   159.7144   Anisotropy =    37.2104

     62  H    Isotropic =    30.9213   Anisotropy =     7.2740

     63  H    Isotropic =    30.9296   Anisotropy =    11.4280

     64  H    Isotropic =    30.6973   Anisotropy =     8.4307

     65  C    Isotropic =   156.5630   Anisotropy =    39.9963

     66  H    Isotropic =    30.6728   Anisotropy =     6.5211

     67  H    Isotropic =    30.3194   Anisotropy =     7.4806

     68  H    Isotropic =    30.6883   Anisotropy =    10.5137

     69  C    Isotropic =   158.6219   Anisotropy =    37.8424

     70  H    Isotropic =    31.3077   Anisotropy =     6.2267

     71  H    Isotropic =    30.9631   Anisotropy =    11.2044

     72  H    Isotropic =    31.1733   Anisotropy =     6.4308

 The electronic state is 1-A.
 Alpha  occ. eigenvalues --  -77.24106 -77.23307 -10.31039 -10.30399 -10.29961
 Alpha  occ. eigenvalues --  -10.29864 -10.29776 -10.29555 -10.29288 -10.29200
 Alpha  occ. eigenvalues --  -10.28928 -10.28843 -10.28681 -10.28562 -10.28463
 Alpha  occ. eigenvalues --  -10.28436 -10.28373 -10.28074 -10.28014 -10.27938
 Alpha  occ. eigenvalues --  -10.27858 -10.27826 -10.27765 -10.27709 -10.27655
 Alpha  occ. eigenvalues --  -10.27653 -10.27639 -10.27572 -10.27532 -10.27508
 Alpha  occ. eigenvalues --  -10.26868 -10.26645 -10.26543  -6.70085  -6.69305
 Alpha  occ. eigenvalues --   -4.86370  -4.86310  -4.85985  -4.85609  -4.85490
 Alpha  occ. eigenvalues --   -4.85205  -3.31767  -2.08645  -2.07996  -2.05226
 Alpha  occ. eigenvalues --   -0.97038  -0.96854  -0.96270  -0.94723  -0.92904
 Alpha  occ. eigenvalues --   -0.89457  -0.89155  -0.88295  -0.86703  -0.85742
 Alpha  occ. eigenvalues --   -0.85524  -0.85433  -0.85071  -0.84178  -0.80627
 Alpha  occ. eigenvalues --   -0.79599  -0.79448  -0.78104  -0.75741  -0.73306
 Alpha  occ. eigenvalues --   -0.71489  -0.71409  -0.71155  -0.70823  -0.70436
 Alpha  occ. eigenvalues --   -0.69199  -0.67048  -0.66161  -0.64579  -0.62892
 Alpha  occ. eigenvalues --   -0.62600  -0.61951  -0.60892  -0.60383  -0.57919
 Alpha  occ. eigenvalues --   -0.57345  -0.56773  -0.56572  -0.56456  -0.56305
 Alpha  occ. eigenvalues --   -0.55952  -0.55658  -0.55628  -0.55009  -0.54720
 Alpha  occ. eigenvalues --   -0.54382  -0.53911  -0.53241  -0.52954  -0.52918
 Alpha  occ. eigenvalues --   -0.52804  -0.52753  -0.52229  -0.50588  -0.50069
 Alpha  occ. eigenvalues --   -0.49559  -0.49111  -0.48697  -0.48264  -0.48040
 Alpha  occ. eigenvalues --   -0.47761  -0.47677  -0.47479  -0.46485  -0.46408
 Alpha  occ. eigenvalues --   -0.46239  -0.45666  -0.45364  -0.45229  -0.44914
 Alpha  occ. eigenvalues --   -0.44777  -0.44123  -0.43627  -0.43428  -0.43265
 Alpha  occ. eigenvalues --   -0.42597  -0.42324  -0.41081  -0.38268  -0.37337
 Alpha  occ. eigenvalues --   -0.36856  -0.36475  -0.36386  -0.36162  -0.35924
 Alpha  occ. eigenvalues --   -0.35522  -0.34967  -0.34406  -0.33816  -0.30976
 Alpha virt. eigenvalues --   -0.16734  -0.14996  -0.13616  -0.13461  -0.12268
 Alpha virt. eigenvalues --   -0.12239  -0.11423  -0.11065  -0.09527  -0.08068
 Alpha virt. eigenvalues --   -0.07308  -0.06940  -0.06240  -0.06172  -0.05505

 Mulliken charges:
               1
     1  P    0.444122
     2  C   -0.171637
     3  C   -0.047966
     4  C   -0.133151
     5  C   -0.088393
     6  C   -0.094488
     7  C   -0.103270
     8  H    0.158494
     9  H    0.136055
    10  H    0.139600
    11  H    0.131584
    12  H    0.166170
    13  C   -0.310724
    14  C   -0.040357
    15  C   -0.104866
    16  C   -0.093643
    17  C   -0.086258
    18  C   -0.059461
    19  H    0.156567
    20  H    0.138708
    21  H    0.140822
    22  H    0.131655
    23  H    0.179031
    24  C   -0.637329
    25  P    0.313204
    26  C   -0.167393
    27  C   -0.123269
    28  C   -0.096847
    29  C   -0.088118
    30  C   -0.122072
    31  C    0.002993
    32  H    0.101151
    33  H    0.131502
    34  H    0.142622
    35  H    0.135405
    36  H    0.157484
    37  H    0.218584
    38  H    0.225527
    39  Rh  -0.499488
    40  C   -0.069839
    41  C   -0.088016
    42  C   -0.024455
    43  C   -0.094397
    44  C   -0.358075
    45  H    0.211521
    46  H    0.208292
    47  C   -0.213917
    48  C   -0.372771
    49  H    0.175015
    50  C   -0.216984
    51  H    0.169439
    52  H    0.168931
    53  H    0.168667
    54  H    0.171783
    55  H    0.134738
    56  H    0.170094
    57  H    0.167746
    58  H    0.128351
    59  H    0.173818
    60  C   -0.046242
    61  C   -0.397846
    62  H    0.135663
    63  H    0.152990
    64  H    0.160236
    65  C   -0.371925
    66  H    0.133824
    67  H    0.129753
    68  H    0.161777
    69  C   -0.403449
    70  H    0.161616
    71  H    0.154230
    72  H    0.136885
 Sum of Mulliken charges =   1.00000

 Dipole moment (field-independent basis, Debye):
    X=              0.2804    Y=              0.3020    Z=              0.5472  Tot=              0.6850
 Quadrupole moment (field-independent basis, Debye-Ang):
   XX=           -181.8395   YY=           -188.0700   ZZ=           -199.0242
   XY=              4.1898   XZ=             -3.2650   YZ=             -0.4743

 Summary of Natural Population Analysis:

                                       Natural Population
                Natural  -----------------------------------------------
    Atom  No    Charge         Core      Valence    Rydberg      Total
 -----------------------------------------------------------------------
      P    1    1.13506      9.99650     3.81795    0.05049    13.86494
      C    2   -0.34169      1.99900     4.31910    0.02360     6.34169
      C    3   -0.19649      1.99910     4.18186    0.01553     6.19649
      C    4   -0.18844      1.99920     4.17466    0.01458     6.18844
      C    5   -0.18132      1.99920     4.16746    0.01465     6.18132
      C    6   -0.18934      1.99920     4.17543    0.01471     6.18934
      C    7   -0.20153      1.99910     4.18719    0.01524     6.20153
      H    8    0.21983      0.00000     0.77838    0.00179     0.78017
      H    9    0.22331      0.00000     0.77547    0.00122     0.77669
      H   10    0.22332      0.00000     0.77551    0.00117     0.77668
      H   11    0.22158      0.00000     0.77718    0.00124     0.77842
      H   12    0.21417      0.00000     0.78360    0.00223     0.78583
      C   13   -0.34786      1.99899     4.32521    0.02366     6.34786
      C   14   -0.18956      1.99910     4.17483    0.01563     6.18956
      C   15   -0.19595      1.99920     4.18215    0.01461     6.19595
      C   16   -0.17398      1.99921     4.16021    0.01456     6.17398
      C   17   -0.19041      1.99920     4.17667    0.01454     6.19041
      C   18   -0.18924      1.99910     4.17421    0.01593     6.18924
      H   19    0.22223      0.00000     0.77594    0.00183     0.77777
      H   20    0.22414      0.00000     0.77465    0.00122     0.77586
      H   21    0.22379      0.00000     0.77504    0.00117     0.77621
      H   22    0.22161      0.00000     0.77716    0.00123     0.77839
      H   23    0.22089      0.00000     0.77707    0.00204     0.77911
      C   24   -0.99062      1.99942     4.97363    0.01757     6.99062
      P   25    1.08103      9.99672     3.87366    0.04859    13.91897
      C   26   -0.34660      1.99898     4.32383    0.02378     6.34660
      C   27   -0.20503      1.99909     4.18991    0.01604     6.20503
      C   28   -0.19371      1.99919     4.17978    0.01474     6.19371
      C   29   -0.17565      1.99920     4.16190    0.01454     6.17565
      C   30   -0.19319      1.99920     4.17953    0.01447     6.19319
      C   31   -0.18084      1.99910     4.16624    0.01550     6.18084
      H   32    0.21455      0.00000     0.78349    0.00196     0.78545
      H   33    0.22224      0.00000     0.77654    0.00122     0.77776
      H   34    0.22410      0.00000     0.77473    0.00117     0.77590
      H   35    0.22348      0.00000     0.77528    0.00124     0.77652
      H   36    0.21162      0.00000     0.78600    0.00238     0.78838
      H   37    0.25645      0.00000     0.74140    0.00215     0.74355
      H   38    0.26590      0.00000     0.73222    0.00188     0.73410
     Rh   39   -0.37251     35.98595     9.35731    0.02924    45.37251
      C   40   -0.18545      1.99907     4.16710    0.01928     6.18545
      C   41   -0.15253      1.99909     4.13395    0.01949     6.15253
      C   42   -0.18178      1.99907     4.16307    0.01964     6.18178
      C   43   -0.15573      1.99908     4.13637    0.02028     6.15573
      C   44   -0.42327      1.99936     4.41198    0.01194     6.42327
      H   45    0.22523      0.00000     0.77255    0.00222     0.77477
      H   46    0.22973      0.00000     0.76799    0.00228     0.77027
      C   47   -0.41827      1.99935     4.40629    0.01263     6.41827
      C   48   -0.42432      1.99936     4.41304    0.01192     6.42432
      H   49    0.21959      0.00000     0.77835    0.00206     0.78041
      C   50   -0.41870      1.99935     4.40657    0.01278     6.41870
      H   51    0.22150      0.00000     0.77625    0.00225     0.77850
      H   52    0.22804      0.00000     0.77047    0.00149     0.77196
      H   53    0.21568      0.00000     0.78235    0.00198     0.78432
      H   54    0.23458      0.00000     0.76356    0.00187     0.76542
      H   55    0.21892      0.00000     0.77941    0.00167     0.78108
      H   56    0.21596      0.00000     0.78206    0.00198     0.78404
      H   57    0.22793      0.00000     0.77058    0.00150     0.77207
      H   58    0.21468      0.00000     0.78367    0.00165     0.78532
      H   59    0.23493      0.00000     0.76318    0.00189     0.76507
      C   60   -0.25331      1.99944     4.23719    0.01669     6.25331
      C   61   -0.60972      1.99936     4.60184    0.00853     6.60972
      H   62    0.20520      0.00000     0.79319    0.00161     0.79480
      H   63    0.22435      0.00000     0.77392    0.00173     0.77565
      H   64    0.21761      0.00000     0.78084    0.00155     0.78239
      C   65   -0.60167      1.99936     4.59443    0.00789     6.60167
      H   66    0.20645      0.00000     0.79187    0.00169     0.79355
      H   67    0.21277      0.00000     0.78566    0.00157     0.78723
      H   68    0.22411      0.00000     0.77410    0.00179     0.77589
      C   69   -0.60646      1.99935     4.59890    0.00821     6.60646
      H   70    0.21920      0.00000     0.77932    0.00147     0.78080
      H   71    0.22403      0.00000     0.77425    0.00172     0.77597
      H   72    0.20539      0.00000     0.79314    0.00147     0.79461
 =======================================================================
   * Total *    1.00000    117.95417   179.36980    0.67603   298.00000

 Normal termination of Gaussian 16 at Tue Jan 21 13:57:29 2025.
