 Gaussian 16, Revision B.01,
 Gaussian 16:  ES64L-G16RevB.01 20-Dec-2017

 ------------------------------------------
 # nmr=giao b3lyp/genecp pop=nbo scfcyc=200
 ------------------------------------------

 --------
 MB-5_SPE
 --------
 Symbolic Z-matrix:
 Charge =  1 Multiplicity = 1

                         Standard orientation:
 ---------------------------------------------------------------------
 Center     Atomic      Atomic             Coordinates (Angstroms)
 Number     Number       Type             X           Y           Z
 ---------------------------------------------------------------------
      1         15           0       -1.195617    1.479364   -0.104709
      2         15           0       -1.387755   -1.303145   -0.151949
      3          6           0       -2.456681    0.175618   -0.567969
      4          1           0       -2.634561    0.211428   -1.644299
      5          1           0       -3.418521    0.230690   -0.057009
      6          6           0       -1.792065    2.235356    1.488791
      7          1           0       -1.784377    1.428296    2.224931
      8          1           0       -1.012903    2.932824    1.805511
      9          6           0       -3.155893    2.927150    1.448281
     10          1           0       -3.414032    3.293390    2.443431
     11          1           0       -3.952135    2.249342    1.135631
     12          1           0       -3.160971    3.784490    0.774571
     13          6           0       -1.359454    2.815725   -1.390229
     14          1           0       -1.057115    2.360204   -2.335689
     15          1           0       -2.420053    3.063397   -1.479209
     16          6           0       -0.532800    4.072802   -1.110189
     17          1           0       -0.650548    4.783793   -1.929199
     18          1           0        0.531849    3.852229   -1.019929
     19          1           0       -0.850189    4.575553   -0.195589
     20          6           0       -1.657099   -2.564675   -1.492109
     21          1           0       -1.274097   -2.105306   -2.406529
     22          1           0       -0.990391   -3.402027   -1.270879
     23          6           0       -3.094790   -3.050931   -1.684609
     24          1           0       -3.142062   -3.739951   -2.529609
     25          1           0       -3.779108   -2.227409   -1.896939
     26          1           0       -3.468051   -3.583790   -0.809519
     27          6           0       -2.162507   -2.016133    1.383081
     28          1           0       -2.133815   -1.224803    2.135131
     29          1           0       -3.215638   -2.208350    1.163231
     30          6           0       -1.478091   -3.276755    1.913761
     31          1           0       -1.988122   -3.626684    2.812381
     32          1           0       -0.437360   -3.087978    2.180071
     33          1           0       -1.501413   -4.092255    1.189091
     34         45           0        0.607108   -0.048761    0.001181
     35          6           0        2.390032    1.268444   -0.553419
     36          6           0        2.211302    1.315605    0.812631
     37          6           0        2.151144   -1.599985    0.645281
     38          6           0        2.047084   -1.623255   -0.729729
     39          6           0        3.445890    0.457211   -1.280429
     40          1           0        1.935594    2.060795   -1.136969
     41          1           0        1.662585    2.162586    1.212471
     42          6           0        2.956190    0.514082    1.850681
     43          6           0        3.264086   -0.941998    1.438991
     44          1           0        1.559802   -2.325924    1.191981
     45          6           0        2.959216   -0.940308   -1.718009
     46          1           0        1.414012   -2.389283   -1.165389
     47          1           0        3.753471    1.009250   -2.169979
     48          1           0        4.336390    0.373369   -0.658289
     49          1           0        3.888201    1.028480    2.115941
     50          1           0        2.351890    0.507714    2.760451
     51          1           0        4.194796   -0.989491    0.874471
     52          1           0        3.434114   -1.526139    2.344761
     53          1           0        2.417976   -0.850816   -2.662409
     54          1           0        3.822094   -1.584370   -1.928779
 ---------------------------------------------------------------------

 SCF Done:  E(RB3LYP) =  -1461.74542102     A.U. after   14 cycles

      1  P    Isotropic =   325.5214   Anisotropy =    69.8913

      2  P    Isotropic =   324.1008   Anisotropy =    63.7786

      3  C    Isotropic =   142.9452   Anisotropy =    51.1177

      4  H    Isotropic =    29.3313   Anisotropy =     5.3881

      5  H    Isotropic =    29.1485   Anisotropy =     8.7962

      6  C    Isotropic =   160.5288   Anisotropy =    29.3400

      7  H    Isotropic =    30.1797   Anisotropy =     6.3541

      8  H    Isotropic =    29.9091   Anisotropy =     6.1876

      9  C    Isotropic =   178.5940   Anisotropy =    16.5150

     10  H    Isotropic =    30.4483   Anisotropy =    12.9304

     11  H    Isotropic =    30.9892   Anisotropy =     8.1376

     12  H    Isotropic =    30.9733   Anisotropy =     9.2338

     13  C    Isotropic =   157.5717   Anisotropy =    28.3756

     14  H    Isotropic =    30.3196   Anisotropy =     6.6727

     15  H    Isotropic =    29.8334   Anisotropy =     7.8954

     16  C    Isotropic =   175.8470   Anisotropy =    19.2917

     17  H    Isotropic =    30.4157   Anisotropy =    12.9475

     18  H    Isotropic =    31.2403   Anisotropy =     6.8848

     19  H    Isotropic =    31.0013   Anisotropy =     8.2142

     20  C    Isotropic =   159.4916   Anisotropy =    27.4849

     21  H    Isotropic =    30.2372   Anisotropy =     6.7965

     22  H    Isotropic =    30.0462   Anisotropy =     6.0756

     23  C    Isotropic =   177.7018   Anisotropy =    17.3869

     24  H    Isotropic =    30.4311   Anisotropy =    13.0451

     25  H    Isotropic =    31.0845   Anisotropy =     8.0622

     26  H    Isotropic =    30.8973   Anisotropy =     8.9479

     27  C    Isotropic =   157.6149   Anisotropy =    27.0333

     28  H    Isotropic =    30.3171   Anisotropy =     6.2189

     29  H    Isotropic =    29.7914   Anisotropy =     7.7152

     30  C    Isotropic =   175.4209   Anisotropy =    19.0089

     31  H    Isotropic =    30.3711   Anisotropy =    12.8114

     32  H    Isotropic =    30.9946   Anisotropy =     7.1662

     33  H    Isotropic =    31.0429   Anisotropy =     8.4132

     34  Rh   Isotropic =  -312.8538   Anisotropy =   350.6182

     35  C    Isotropic =    78.2737   Anisotropy =   122.5676

     36  C    Isotropic =    78.3876   Anisotropy =   114.9968

     37  C    Isotropic =    79.6042   Anisotropy =   121.0300

     38  C    Isotropic =    76.2779   Anisotropy =   117.2935

     39  C    Isotropic =   153.8600   Anisotropy =    25.1172

     40  H    Isotropic =    26.7312   Anisotropy =     6.9799

     41  H    Isotropic =    26.4976   Anisotropy =     4.6349

     42  C    Isotropic =   147.8633   Anisotropy =    29.9213

     43  C    Isotropic =   154.0305   Anisotropy =    24.8125

     44  H    Isotropic =    26.9806   Anisotropy =     6.9501

     45  C    Isotropic =   147.5640   Anisotropy =    30.5320

     46  H    Isotropic =    26.5309   Anisotropy =     4.4352

     47  H    Isotropic =    29.8455   Anisotropy =    11.4398

     48  H    Isotropic =    29.7847   Anisotropy =     8.9942

     49  H    Isotropic =    29.1032   Anisotropy =    12.2898

     50  H    Isotropic =    29.2179   Anisotropy =     7.9568

     51  H    Isotropic =    29.8008   Anisotropy =     9.1511

     52  H    Isotropic =    29.8673   Anisotropy =    11.4434

     53  H    Isotropic =    29.1629   Anisotropy =     7.9267

     54  H    Isotropic =    29.1067   Anisotropy =    12.2717

 The electronic state is 1-A.
 Alpha  occ. eigenvalues --  -77.24111 -77.24100 -10.31249 -10.30487 -10.30457
 Alpha  occ. eigenvalues --  -10.30431 -10.30382 -10.30023 -10.29992 -10.29866
 Alpha  occ. eigenvalues --  -10.29758 -10.28297 -10.28290 -10.28076 -10.28068
 Alpha  occ. eigenvalues --  -10.28046 -10.28001 -10.28000 -10.27944  -6.70175
 Alpha  occ. eigenvalues --   -6.70169  -4.86473  -4.86466  -4.86368  -4.86360
 Alpha  occ. eigenvalues --   -4.86068  -4.86063  -3.32410  -2.09315  -2.08647
 Alpha  occ. eigenvalues --   -2.05834  -0.95326  -0.92649  -0.90847  -0.90072
 Alpha  occ. eigenvalues --   -0.88824  -0.87777  -0.87707  -0.85676  -0.81198
 Alpha  occ. eigenvalues --   -0.78673  -0.77955  -0.75867  -0.74699  -0.74332
 Alpha  occ. eigenvalues --   -0.71381  -0.66772  -0.66568  -0.66373  -0.63361
 Alpha  occ. eigenvalues --   -0.60994  -0.59360  -0.58987  -0.58469  -0.57632
 Alpha  occ. eigenvalues --   -0.57142  -0.56897  -0.56178  -0.55185  -0.54416
 Alpha  occ. eigenvalues --   -0.53801  -0.53559  -0.53491  -0.53391  -0.52653
 Alpha  occ. eigenvalues --   -0.51289  -0.50993  -0.50187  -0.49541  -0.49013
 Alpha  occ. eigenvalues --   -0.48789  -0.48644  -0.48094  -0.47843  -0.47403
 Alpha  occ. eigenvalues --   -0.47065  -0.47010  -0.46766  -0.44373  -0.44189
 Alpha  occ. eigenvalues --   -0.44037  -0.44006  -0.43456  -0.43040  -0.41719
 Alpha  occ. eigenvalues --   -0.37644  -0.37362  -0.35947  -0.35503  -0.34672
 Alpha  occ. eigenvalues --   -0.31634
 Alpha virt. eigenvalues --   -0.17120  -0.14724  -0.10270  -0.09666  -0.09412
 Alpha virt. eigenvalues --   -0.09077  -0.07927  -0.07373  -0.07168  -0.06165
 Alpha virt. eigenvalues --   -0.05801  -0.05405  -0.04962  -0.04537  -0.04040

 Mulliken charges:
               1
     1  P    0.395256
     2  P    0.408243
     3  C   -0.576592
     4  H    0.210810
     5  H    0.207150
     6  C   -0.329953
     7  H    0.151067
     8  H    0.166397
     9  C   -0.370532
    10  H    0.160551
    11  H    0.127944
    12  H    0.141714
    13  C   -0.307871
    14  H    0.159312
    15  H    0.174834
    16  C   -0.399545
    17  H    0.164692
    18  H    0.134887
    19  H    0.144587
    20  C   -0.339476
    21  H    0.161156
    22  H    0.165179
    23  C   -0.371002
    24  H    0.161644
    25  H    0.133789
    26  H    0.142166
    27  C   -0.297779
    28  H    0.145832
    29  H    0.168213
    30  C   -0.389622
    31  H    0.165589
    32  H    0.123450
    33  H    0.141651
    34  Rh  -0.507545
    35  C   -0.021724
    36  C   -0.076876
    37  C   -0.033231
    38  C   -0.096912
    39  C   -0.352434
    40  H    0.165116
    41  H    0.173968
    42  C   -0.221488
    43  C   -0.341330
    44  H    0.182861
    45  C   -0.220172
    46  H    0.183240
    47  H    0.171444
    48  H    0.169669
    49  H    0.173883
    50  H    0.133471
    51  H    0.168319
    52  H    0.170419
    53  H    0.131670
    54  H    0.173911
 Sum of Mulliken charges =   1.00000

 Dipole moment (field-independent basis, Debye):
    X=             -2.4858    Y=              0.1947    Z=             -0.2767  Tot=              2.5087
 Quadrupole moment (field-independent basis, Debye-Ang):
   XX=           -121.1131   YY=           -123.5454   ZZ=           -138.6142
   XY=              0.0964   XZ=              0.0599   YZ=              0.1630

 Summary of Natural Population Analysis:

                                       Natural Population
                Natural  -----------------------------------------------
    Atom  No    Charge         Core      Valence    Rydberg      Total
 -----------------------------------------------------------------------
      P    1    1.11129      9.99680     3.84386    0.04805    13.88871
      P    2    1.11507      9.99677     3.84016    0.04800    13.88493
      C    3   -0.99416      1.99945     4.97703    0.01768     6.99416
      H    4    0.25998      0.00000     0.73843    0.00159     0.74002
      H    5    0.25156      0.00000     0.74597    0.00247     0.74844
      C    6   -0.67270      1.99941     4.66001    0.01328     6.67270
      H    7    0.23192      0.00000     0.76646    0.00162     0.76808
      H    8    0.23468      0.00000     0.76388    0.00144     0.76532
      C    9   -0.60167      1.99945     4.59397    0.00825     6.60167
      H   10    0.23060      0.00000     0.76821    0.00120     0.76940
      H   11    0.20377      0.00000     0.79459    0.00164     0.79623
      H   12    0.20901      0.00000     0.78950    0.00149     0.79099
      C   13   -0.67357      1.99941     4.66041    0.01375     6.67357
      H   14    0.23435      0.00000     0.76421    0.00143     0.76565
      H   15    0.23129      0.00000     0.76673    0.00198     0.76871
      C   16   -0.59756      1.99945     4.59048    0.00764     6.59756
      H   17    0.23119      0.00000     0.76764    0.00117     0.76881
      H   18    0.20505      0.00000     0.79353    0.00143     0.79495
      H   19    0.20766      0.00000     0.79090    0.00145     0.79234
      C   20   -0.67470      1.99941     4.66245    0.01285     6.67470
      H   21    0.23521      0.00000     0.76335    0.00145     0.76479
      H   22    0.23378      0.00000     0.76471    0.00151     0.76622
      C   23   -0.60108      1.99946     4.59342    0.00820     6.60108
      H   24    0.23086      0.00000     0.76795    0.00119     0.76914
      H   25    0.20624      0.00000     0.79232    0.00145     0.79376
      H   26    0.20843      0.00000     0.79010    0.00146     0.79157
      C   27   -0.67131      1.99941     4.65764    0.01426     6.67131
      H   28    0.22967      0.00000     0.76869    0.00164     0.77033
      H   29    0.22914      0.00000     0.76873    0.00213     0.77086
      C   30   -0.59722      1.99945     4.59013    0.00764     6.59722
      H   31    0.23000      0.00000     0.76883    0.00117     0.77000
      H   32    0.20706      0.00000     0.79135    0.00159     0.79294
      H   33    0.20680      0.00000     0.79176    0.00144     0.79320
     Rh   34   -0.43998     35.98565     9.42798    0.02634    45.43998
      C   35   -0.16341      1.99904     4.14444    0.01993     6.16341
      C   36   -0.15873      1.99905     4.13926    0.02041     6.15873
      C   37   -0.17202      1.99905     4.15305    0.01993     6.17202
      C   38   -0.15170      1.99905     4.13220    0.02045     6.15170
      C   39   -0.42519      1.99936     4.41383    0.01200     6.42519
      H   40    0.22096      0.00000     0.77684    0.00220     0.77904
      H   41    0.22242      0.00000     0.77555    0.00202     0.77758
      C   42   -0.42207      1.99936     4.41016    0.01254     6.42207
      C   43   -0.42458      1.99937     4.41335    0.01187     6.42458
      H   44    0.22515      0.00000     0.77297    0.00188     0.77485
      C   45   -0.42176      1.99936     4.40987    0.01253     6.42176
      H   46    0.22139      0.00000     0.77657    0.00204     0.77861
      H   47    0.22991      0.00000     0.76869    0.00140     0.77009
      H   48    0.21524      0.00000     0.78280    0.00195     0.78476
      H   49    0.23551      0.00000     0.76270    0.00179     0.76449
      H   50    0.21925      0.00000     0.77922    0.00153     0.78075
      H   51    0.21507      0.00000     0.78298    0.00195     0.78493
      H   52    0.22994      0.00000     0.76867    0.00139     0.77006
      H   53    0.21877      0.00000     0.77970    0.00153     0.78123
      H   54    0.23519      0.00000     0.76302    0.00180     0.76481
 =======================================================================
   * Total *    1.00000     89.96776   119.62124    0.41100   210.00000

 Normal termination of Gaussian 16 at Tue Jan 21 01:06:57 2025.
