 Gaussian 16, Revision B.01,
 Gaussian 16:  ES64L-G16RevB.01 20-Dec-2017

 ------------------------------------------
 # nmr=giao b3lyp/genecp pop=nbo scfcyc=200
 ------------------------------------------

 ---------
 MB-51_SPE
 ---------
 Symbolic Z-matrix:
 Charge =  1 Multiplicity = 1

                         Standard orientation:
 ---------------------------------------------------------------------
 Center     Atomic      Atomic             Coordinates (Angstroms)
 Number     Number       Type             X           Y           Z
 ---------------------------------------------------------------------
      1         15           0       -1.345810   -0.438720    0.366290
      2         15           0        1.342080   -1.049739   -0.008940
      3          6           0       -0.065100   -1.592320    1.099720
      4          6           0       -2.479500    0.074870    1.724540
      5          6           0       -3.864950    0.094940    1.543830
      6          6           0       -4.695960    0.556280    2.560670
      7          6           0       -4.154560    1.002830    3.760390
      8          6           0       -2.774030    0.997310    3.941640
      9          6           0       -1.939530    0.544790    2.927570
     10          6           0       -2.343290   -1.478840   -0.774850
     11          6           0       -2.463070   -1.108950   -2.116270
     12          6           0       -3.202560   -1.893410   -2.997270
     13          6           0       -3.823289   -3.051450   -2.544000
     14          6           0       -3.706429   -3.427710   -1.207390
     15          6           0       -2.970929   -2.646830   -0.325180
     16          6           0        2.902780   -1.176409    0.957320
     17          6           0        4.048710   -0.533129    0.474770
     18          6           0        5.252590   -0.626559    1.163670
     19          6           0        5.323860   -1.352409    2.348380
     20          6           0        4.189481   -1.991319    2.837560
     21          6           0        2.985560   -1.907469    2.146020
     22          6           0        1.433711   -2.389039   -1.335560
     23          1           0        0.142100   -1.277550    2.121850
     24          1           0       -0.320479   -2.651450    1.096250
     25          1           0        0.404921   -2.431750   -1.705860
     26          1           0       -4.302210   -0.255690    0.618470
     27          1           0       -5.768490    0.562089    2.412570
     28          1           0       -4.803770    1.357180    4.550900
     29          1           0       -2.346500    1.348550    4.872340
     30          1           0       -0.866810    0.567350    3.079650
     31          1           0       -1.971410   -0.212310   -2.472390
     32          1           0       -3.291740   -1.599280   -4.035430
     33          1           0       -4.398419   -3.661850   -3.228760
     34          1           0       -4.190669   -4.328880   -0.852760
     35          1           0       -2.897789   -2.944980    0.714010
     36          1           0        4.010280    0.041021   -0.442700
     37          1           0        6.132670   -0.127729    0.777730
     38          1           0        6.259990   -1.420279    2.887800
     39          1           0        4.240451   -2.560419    3.757280
     40          1           0        2.118591   -2.422669    2.539330
     41         45           0        0.269870    1.018680   -0.534990
     42          6           0        2.014810    2.496171   -0.535310
     43          6           0        1.832560    2.026991   -1.818080
     44          6           0       -0.971540    2.706820   -1.395720
     45          6           0       -0.821640    2.912130   -0.037240
     46          6           0        1.565610    3.851421   -0.023540
     47          1           0        2.748480    1.988351    0.080040
     48          1           0        2.467820    1.209621   -2.143560
     49          6           0        1.082780    2.713210   -2.933290
     50          6           0       -0.209450    3.433610   -2.489150
     51          1           0       -1.886960    2.218470   -1.713120
     52          6           0        0.171530    3.826700    0.635560
     53          1           0       -1.639790    2.599580    0.602450
     54          1           0        2.291729    4.200481    0.712500
     55          1           0        1.590239    4.576121   -0.836910
     56          1           0        1.745130    3.422521   -3.444870
     57          1           0        0.830590    1.954770   -3.677810
     58          1           0        0.014769    4.449640   -2.164700
     59          1           0       -0.862270    3.535420   -3.357550
     60          1           0        0.271510    3.500100    1.672910
     61          1           0       -0.237241    4.843990    0.680960
     62          6           0        1.822391   -3.759019   -0.774410
     63          1           0        1.749051   -4.508239   -1.566040
     64          1           0        2.849631   -3.762689   -0.407370
     65          1           0        1.170891   -4.083469    0.038610
     66          6           0        2.346380   -1.970589   -2.492290
     67          1           0        2.320291   -2.734309   -3.272310
     68          1           0        2.030310   -1.028189   -2.941180
     69          1           0        3.385340   -1.872959   -2.170550
 ---------------------------------------------------------------------

 SCF Done:  E(RB3LYP) =  -1958.47073625     A.U. after   16 cycles

      1  P    Isotropic =   311.0127   Anisotropy =   101.3172

      2  P    Isotropic =   312.5497   Anisotropy =    69.2503

      3  C    Isotropic =   136.9014   Anisotropy =    46.3652

      4  C    Isotropic =    44.3211   Anisotropy =   167.9537

      5  C    Isotropic =    47.0525   Anisotropy =   191.4803

      6  C    Isotropic =    48.5979   Anisotropy =   190.2166

      7  C    Isotropic =    46.0729   Anisotropy =   196.2953

      8  C    Isotropic =    48.7258   Anisotropy =   190.1341

      9  C    Isotropic =    49.6847   Anisotropy =   186.7542

     10  C    Isotropic =    46.8052   Anisotropy =   173.3961

     11  C    Isotropic =    41.2484   Anisotropy =   180.1487

     12  C    Isotropic =    48.9841   Anisotropy =   188.6120

     13  C    Isotropic =    44.1154   Anisotropy =   199.8866

     14  C    Isotropic =    47.5444   Anisotropy =   191.9809

     15  C    Isotropic =    46.1326   Anisotropy =   189.5486

     16  C    Isotropic =    49.2408   Anisotropy =   169.2584

     17  C    Isotropic =    46.6478   Anisotropy =   181.0180

     18  C    Isotropic =    49.0270   Anisotropy =   190.2592

     19  C    Isotropic =    45.8404   Anisotropy =   197.8597

     20  C    Isotropic =    48.3158   Anisotropy =   190.9666

     21  C    Isotropic =    48.9015   Anisotropy =   184.3958

     22  C    Isotropic =   143.3551   Anisotropy =    24.8975

     23  H    Isotropic =    27.8292   Anisotropy =     4.7450

     24  H    Isotropic =    28.4039   Anisotropy =     8.9602

     25  H    Isotropic =    30.3752   Anisotropy =     9.6653

     26  H    Isotropic =    25.0413   Anisotropy =    12.7634

     27  H    Isotropic =    24.3392   Anisotropy =     6.4437

     28  H    Isotropic =    24.0849   Anisotropy =     3.7751

     29  H    Isotropic =    24.0163   Anisotropy =     6.6989

     30  H    Isotropic =    23.9816   Anisotropy =    10.6532

     31  H    Isotropic =    23.5281   Anisotropy =    10.0588

     32  H    Isotropic =    23.9822   Anisotropy =     6.6679

     33  H    Isotropic =    23.8409   Anisotropy =     3.8631

     34  H    Isotropic =    23.9858   Anisotropy =     5.7007

     35  H    Isotropic =    24.2313   Anisotropy =    11.1479

     36  H    Isotropic =    24.7683   Anisotropy =    10.1478

     37  H    Isotropic =    24.1301   Anisotropy =     6.8740

     38  H    Isotropic =    24.0021   Anisotropy =     3.8656

     39  H    Isotropic =    24.0603   Anisotropy =     6.1403

     40  H    Isotropic =    24.5249   Anisotropy =    11.9681

     41  Rh   Isotropic =  -314.1225   Anisotropy =   342.2733

     42  C    Isotropic =    72.1708   Anisotropy =   132.6669

     43  C    Isotropic =    79.5990   Anisotropy =   113.6723

     44  C    Isotropic =    82.7061   Anisotropy =   115.4389

     45  C    Isotropic =    73.9734   Anisotropy =   121.2871

     46  C    Isotropic =   153.7350   Anisotropy =    25.7369

     47  H    Isotropic =    26.6144   Anisotropy =     6.5538

     48  H    Isotropic =    25.9650   Anisotropy =     4.2292

     49  C    Isotropic =   148.0384   Anisotropy =    29.6630

     50  C    Isotropic =   154.0966   Anisotropy =    25.0931

     51  H    Isotropic =    27.0850   Anisotropy =     7.0604

     52  C    Isotropic =   147.8894   Anisotropy =    29.6359

     53  H    Isotropic =    27.3883   Anisotropy =     5.0106

     54  H    Isotropic =    29.9271   Anisotropy =    11.2090

     55  H    Isotropic =    29.7930   Anisotropy =     9.3403

     56  H    Isotropic =    28.9802   Anisotropy =    12.6408

     57  H    Isotropic =    28.9455   Anisotropy =     7.7997

     58  H    Isotropic =    29.7758   Anisotropy =     9.4834

     59  H    Isotropic =    29.7684   Anisotropy =    11.7318

     60  H    Isotropic =    29.3180   Anisotropy =     7.1913

     61  H    Isotropic =    29.3776   Anisotropy =    12.3357

     62  C    Isotropic =   169.0430   Anisotropy =    25.5282

     63  H    Isotropic =    31.1611   Anisotropy =    11.8526

     64  H    Isotropic =    31.8389   Anisotropy =     6.6876

     65  H    Isotropic =    31.1145   Anisotropy =     7.5926

     66  C    Isotropic =   165.3297   Anisotropy =    29.5191

     67  H    Isotropic =    30.7416   Anisotropy =    11.5038

     68  H    Isotropic =    30.3919   Anisotropy =     7.1717

     69  H    Isotropic =    30.9674   Anisotropy =     7.2453

 The electronic state is 1-A.
 Alpha  occ. eigenvalues --  -77.24237 -77.23420 -10.30623 -10.30098 -10.30025
 Alpha  occ. eigenvalues --  -10.29968 -10.29888 -10.29321 -10.29254 -10.29179
 Alpha  occ. eigenvalues --  -10.28992 -10.28990 -10.28965 -10.28715 -10.28709
 Alpha  occ. eigenvalues --  -10.28652 -10.28416 -10.28264 -10.28188 -10.28143
 Alpha  occ. eigenvalues --  -10.27861 -10.27844 -10.27825 -10.27750 -10.27735
 Alpha  occ. eigenvalues --  -10.27707 -10.27650 -10.27604 -10.27457 -10.27443
 Alpha  occ. eigenvalues --  -10.26675 -10.26458  -6.70218  -6.69444  -4.86501
 Alpha  occ. eigenvalues --   -4.86442  -4.86117  -4.85759  -4.85624  -4.85341
 Alpha  occ. eigenvalues --   -3.31843  -2.08748  -2.08072  -2.05282  -0.97308
 Alpha  occ. eigenvalues --   -0.96761  -0.96504  -0.94659  -0.91484  -0.89371
 Alpha  occ. eigenvalues --   -0.88966  -0.88197  -0.86498  -0.85912  -0.85670
 Alpha  occ. eigenvalues --   -0.85604  -0.85294  -0.84289  -0.80537  -0.79202
 Alpha  occ. eigenvalues --   -0.77994  -0.75916  -0.73616  -0.71782  -0.71455
 Alpha  occ. eigenvalues --   -0.71234  -0.70743  -0.70667  -0.70319  -0.67359
 Alpha  occ. eigenvalues --   -0.66087  -0.65896  -0.62959  -0.62751  -0.62160
 Alpha  occ. eigenvalues --   -0.60925  -0.60290  -0.57691  -0.57463  -0.56943
 Alpha  occ. eigenvalues --   -0.56562  -0.56468  -0.56350  -0.56162  -0.55924
 Alpha  occ. eigenvalues --   -0.55783  -0.55230  -0.54128  -0.53799  -0.53342
 Alpha  occ. eigenvalues --   -0.53175  -0.52990  -0.52797  -0.52776  -0.52662
 Alpha  occ. eigenvalues --   -0.51723  -0.50672  -0.49403  -0.49074  -0.48894
 Alpha  occ. eigenvalues --   -0.48255  -0.47987  -0.47908  -0.47671  -0.46523
 Alpha  occ. eigenvalues --   -0.46464  -0.46141  -0.45884  -0.45746  -0.45572
 Alpha  occ. eigenvalues --   -0.45298  -0.45230  -0.44164  -0.43853  -0.43461
 Alpha  occ. eigenvalues --   -0.43285  -0.42736  -0.42516  -0.41443  -0.38399
 Alpha  occ. eigenvalues --   -0.37481  -0.36922  -0.36760  -0.36299  -0.36212
 Alpha  occ. eigenvalues --   -0.36010  -0.35392  -0.34959  -0.34790  -0.34065
 Alpha  occ. eigenvalues --   -0.31018
 Alpha virt. eigenvalues --   -0.16575  -0.15203  -0.14048  -0.12946  -0.12371
 Alpha virt. eigenvalues --   -0.12108  -0.11805  -0.11189  -0.09502  -0.07944
 Alpha virt. eigenvalues --   -0.07477  -0.07298  -0.06298  -0.05789  -0.05517

 Mulliken charges:
               1
     1  P    0.351541
     2  P    0.266806
     3  C   -0.604052
     4  C   -0.164581
     5  C   -0.068463
     6  C   -0.099636
     7  C   -0.095847
     8  C   -0.098574
     9  C   -0.077927
    10  C   -0.248871
    11  C   -0.024104
    12  C   -0.109292
    13  C   -0.094709
    14  C   -0.084823
    15  C   -0.091509
    16  C   -0.088022
    17  C   -0.173655
    18  C   -0.091823
    19  C   -0.100020
    20  C   -0.079445
    21  C   -0.070656
    22  C   -0.098502
    23  H    0.210186
    24  H    0.207057
    25  H    0.162855
    26  H    0.160855
    27  H    0.137014
    28  H    0.141418
    29  H    0.133771
    30  H    0.138707
    31  H    0.139569
    32  H    0.133926
    33  H    0.143533
    34  H    0.139145
    35  H    0.150540
    36  H    0.171178
    37  H    0.133793
    38  H    0.140827
    39  H    0.135180
    40  H    0.141781
    41  Rh  -0.497695
    42  C   -0.027119
    43  C   -0.099689
    44  C   -0.009024
    45  C   -0.108633
    46  C   -0.348181
    47  H    0.195898
    48  H    0.180932
    49  C   -0.228790
    50  C   -0.348232
    51  H    0.177900
    52  C   -0.235567
    53  H    0.223610
    54  H    0.170006
    55  H    0.167683
    56  H    0.172717
    57  H    0.130787
    58  H    0.168206
    59  H    0.168685
    60  H    0.132918
    61  H    0.170934
    62  C   -0.371706
    63  H    0.150054
    64  H    0.152990
    65  H    0.125047
    66  C   -0.426044
    67  H    0.155620
    68  H    0.133421
    69  H    0.148102
 Sum of Mulliken charges =   1.00000

 Dipole moment (field-independent basis, Debye):
    X=             -0.0245    Y=             -0.8156    Z=              0.1686  Tot=              0.8331
 Quadrupole moment (field-independent basis, Debye-Ang):
   XX=           -170.6378   YY=           -188.6477   ZZ=           -188.3441
   XY=              4.3803   XZ=              2.7958   YZ=             -0.2418

 Summary of Natural Population Analysis:

                                       Natural Population
                Natural  -----------------------------------------------
    Atom  No    Charge         Core      Valence    Rydberg      Total
 -----------------------------------------------------------------------
      P    1    1.13175      9.99644     3.82037    0.05144    13.86825
      P    2    1.09254      9.99671     3.86317    0.04759    13.90746
      C    3   -0.98011      1.99943     4.96361    0.01707     6.98011
      C    4   -0.34415      1.99900     4.32132    0.02384     6.34415
      C    5   -0.19391      1.99909     4.17955    0.01526     6.19391
      C    6   -0.18815      1.99920     4.17427    0.01468     6.18815
      C    7   -0.17904      1.99920     4.16516    0.01468     6.17904
      C    8   -0.19067      1.99920     4.17674    0.01474     6.19067
      C    9   -0.19883      1.99909     4.18436    0.01538     6.19883
      C   10   -0.35461      1.99900     4.33109    0.02452     6.35461
      C   11   -0.18451      1.99909     4.16989    0.01553     6.18451
      C   12   -0.19638      1.99920     4.18254    0.01464     6.19638
      C   13   -0.17307      1.99921     4.15932    0.01454     6.17307
      C   14   -0.19167      1.99920     4.17784    0.01463     6.19167
      C   15   -0.19245      1.99909     4.17723    0.01613     6.19245
      C   16   -0.34322      1.99900     4.32160    0.02262     6.34322
      C   17   -0.19961      1.99909     4.18488    0.01563     6.19961
      C   18   -0.19079      1.99920     4.17697    0.01462     6.19079
      C   19   -0.17866      1.99920     4.16487    0.01458     6.17866
      C   20   -0.18878      1.99920     4.17493    0.01465     6.18878
      C   21   -0.19543      1.99909     4.18074    0.01561     6.19543
      C   22   -0.44927      1.99941     4.43443    0.01543     6.44927
      H   23    0.26183      0.00000     0.73648    0.00169     0.73817
      H   24    0.25182      0.00000     0.74580    0.00238     0.74818
      H   25    0.22798      0.00000     0.77013    0.00189     0.77202
      H   26    0.22362      0.00000     0.77463    0.00175     0.77638
      H   27    0.22383      0.00000     0.77497    0.00121     0.77617
      H   28    0.22401      0.00000     0.77483    0.00117     0.77599
      H   29    0.22243      0.00000     0.77634    0.00123     0.77757
      H   30    0.21003      0.00000     0.78795    0.00203     0.78997
      H   31    0.22137      0.00000     0.77669    0.00194     0.77863
      H   32    0.22320      0.00000     0.77559    0.00122     0.77680
      H   33    0.22462      0.00000     0.77422    0.00116     0.77538
      H   34    0.22478      0.00000     0.77399    0.00123     0.77522
      H   35    0.21685      0.00000     0.78105    0.00210     0.78315
      H   36    0.21082      0.00000     0.78703    0.00214     0.78918
      H   37    0.22308      0.00000     0.77569    0.00123     0.77692
      H   38    0.22426      0.00000     0.77457    0.00117     0.77574
      H   39    0.22320      0.00000     0.77557    0.00123     0.77680
      H   40    0.20994      0.00000     0.78801    0.00205     0.79006
     Rh   41   -0.39182     35.98567     9.37658    0.02957    45.39182
      C   42   -0.15823      1.99906     4.13963    0.01955     6.15823
      C   43   -0.17379      1.99907     4.15462    0.02010     6.17379
      C   44   -0.18122      1.99906     4.16269    0.01947     6.18122
      C   45   -0.14987      1.99907     4.13120    0.01960     6.14987
      C   46   -0.42511      1.99936     4.41381    0.01193     6.42511
      H   47    0.22872      0.00000     0.76898    0.00230     0.77128
      H   48    0.22265      0.00000     0.77536    0.00199     0.77735
      C   49   -0.41885      1.99935     4.40673    0.01277     6.41885
      C   50   -0.42277      1.99936     4.41164    0.01177     6.42277
      H   51    0.22416      0.00000     0.77394    0.00189     0.77584
      C   52   -0.41793      1.99935     4.40593    0.01265     6.41793
      H   53    0.23125      0.00000     0.76681    0.00194     0.76875
      H   54    0.22949      0.00000     0.76904    0.00147     0.77051
      H   55    0.21470      0.00000     0.78332    0.00198     0.78530
      H   56    0.23402      0.00000     0.76405    0.00192     0.76598
      H   57    0.21512      0.00000     0.78336    0.00153     0.78488
      H   58    0.21514      0.00000     0.78287    0.00199     0.78486
      H   59    0.22833      0.00000     0.77020    0.00147     0.77167
      H   60    0.21683      0.00000     0.78154    0.00163     0.78317
      H   61    0.23369      0.00000     0.76440    0.00191     0.76631
      C   62   -0.60227      1.99941     4.59485    0.00801     6.60227
      H   63    0.22471      0.00000     0.77383    0.00146     0.77529
      H   64    0.21592      0.00000     0.78257    0.00151     0.78408
      H   65    0.20369      0.00000     0.79462    0.00169     0.79631
      C   66   -0.59860      1.99941     4.59192    0.00726     6.59860
      H   67    0.22433      0.00000     0.77419    0.00148     0.77567
      H   68    0.21012      0.00000     0.78852    0.00136     0.78988
      H   69    0.20897      0.00000     0.78939    0.00164     0.79103
 =======================================================================
   * Total *    1.00000    115.95454   173.38503    0.66043   290.00000

 Normal termination of Gaussian 16 at Tue Jan 21 13:21:33 2025.
