 Gaussian 16, Revision B.01,
 Gaussian 16:  ES64L-G16RevB.01 20-Dec-2017

 ------------------------------------------
 # nmr=giao b3lyp/genecp pop=nbo scfcyc=200
 ------------------------------------------

 ---------
 MB-55_SPE
 ---------
 Symbolic Z-matrix:
 Charge =  1 Multiplicity = 1

                         Standard orientation:
 ---------------------------------------------------------------------
 Center     Atomic      Atomic             Coordinates (Angstroms)
 Number     Number       Type             X           Y           Z
 ---------------------------------------------------------------------
      1         15           0        1.221599   -0.949201   -0.057091
      2         15           0       -1.359741   -0.203200    0.749829
      3          6           0       -0.091511   -1.538381    1.149449
      4          1           0        0.231319   -1.347271    2.173469
      5          1           0       -0.383082   -2.583301    1.068759
      6          6           0        0.875649   -1.632831   -2.709421
      7          1           0        1.739999   -1.559491   -3.381701
      8          1           0        0.446209   -0.633701   -2.625611
      9          6           0        2.085808   -3.295441   -1.274111
     10          1           0        2.421558   -3.539091   -2.284661
     11          1           0        2.990938   -3.146441   -0.682361
     12          6           0       -1.290761    1.236959    3.049989
     13          1           0       -0.489651    1.654509    2.437069
     14          1           0       -0.799451    0.638749    3.827219
     15          6           0       -3.176071   -0.392400    2.845689
     16          1           0       -3.818721   -0.819310    2.077919
     17          1           0       -3.795101    0.321910    3.390749
     18         45           0        0.182729    1.134249   -0.443681
     19          6           0        1.978959    2.492849   -0.786581
     20          6           0        1.620879    1.940289   -1.998021
     21          6           0       -1.069051    2.839789   -1.313631
     22          6           0       -0.759620    3.152749   -0.008861
     23          1           0        2.758919    1.989629   -0.226271
     24          6           0        1.671920    3.911469   -0.342271
     25          1           0        2.179459    1.071239   -2.328791
     26          6           0        0.780759    2.584279   -3.072821
     27          6           0       -0.401030    3.424679   -2.543461
     28          1           0       -2.021161    2.352000   -1.491001
     29          1           0       -1.512991    2.937320    0.739929
     30          6           0        0.359030    4.050799    0.458599
     31          1           0        1.656500    4.568589   -1.211571
     32          1           0        2.495250    4.260799    0.282849
     33          1           0        1.414420    3.205039   -3.718321
     34          1           0        0.393969    1.789689   -3.714691
     35          1           0       -1.147930    3.506569   -3.334821
     36          1           0       -0.076700    4.443179   -2.331391
     37          1           0        0.026410    5.096149    0.442059
     38          1           0        0.556070    3.819929    1.507599
     39          6           0       -0.158492   -2.574411   -3.320141
     40          1           0       -0.452612   -2.202041   -4.304081
     41          1           0        0.237768   -3.581141   -3.460481
     42          1           0       -1.052952   -2.637671   -2.699541
     43          6           0        1.296438   -4.471241   -0.697411
     44          1           0        1.046608   -4.309921    0.352839
     45          1           0        0.372098   -4.646211   -1.248661
     46          1           0        1.899708   -5.380381   -0.749691
     47          6           0       -2.075651    2.370200    3.705779
     48          1           0       -2.816541    2.004690    4.417309
     49          1           0       -1.390360    3.016020    4.258379
     50          1           0       -2.593430    2.976000    2.959959
     51          6           0       -2.705531   -1.495920    3.795309
     52          1           0       -2.143662   -2.270520    3.269449
     53          1           0       -2.081501   -1.109350    4.602769
     54          1           0       -3.572482   -1.974240    4.255489
     55          7           0       -2.111121    0.379410    2.172439
     56          7           0        1.349918   -2.020161   -1.368701
     57          6           0        2.847159   -1.042331    0.809149
     58          6           0        3.975619   -0.613092    0.098049
     59          6           0        3.005039   -1.476331    2.126469
     60          6           0        5.230519   -0.620452    0.692079
     61          1           0        3.879209   -0.290312   -0.932121
     62          6           0        4.263969   -1.480292    2.721499
     63          1           0        2.158948   -1.828581    2.700859
     64          6           0        5.376559   -1.050582    2.008659
     65          1           0        6.094589   -0.291102    0.128729
     66          1           0        4.372548   -1.825472    3.741989
     67          1           0        6.354499   -1.055392    2.472959
     68          6           0       -2.735711   -0.983920   -0.185291
     69          6           0       -3.721461   -0.137920   -0.709721
     70          6           0       -2.837502   -2.358940   -0.402751
     71          6           0       -4.789651   -0.659870   -1.426181
     72          1           0       -3.667411    0.930130   -0.538001
     73          6           0       -3.906702   -2.879370   -1.127391
     74          1           0       -2.095432   -3.039420   -0.008861
     75          6           0       -4.882462   -2.033170   -1.639701
     76          1           0       -5.549441    0.003740   -1.819461
     77          1           0       -3.976932   -3.948280   -1.285181
     78          1           0       -5.714282   -2.440170   -2.200491
 ---------------------------------------------------------------------

 SCF Done:  E(RB3LYP) =  -2034.70821672     A.U. after   16 cycles

      1  P    Isotropic =   264.3680   Anisotropy =   174.9719

      2  P    Isotropic =   265.7610   Anisotropy =   156.6285

      3  C    Isotropic =   129.4798   Anisotropy =    62.8596

      4  H    Isotropic =    27.5621   Anisotropy =     5.2156

      5  H    Isotropic =    27.9461   Anisotropy =     7.3425

      6  C    Isotropic =   124.2193   Anisotropy =    58.2208

      7  H    Isotropic =    28.6325   Anisotropy =     7.7287

      8  H    Isotropic =    27.8658   Anisotropy =     7.4522

      9  C    Isotropic =   135.8120   Anisotropy =    54.6008

     10  H    Isotropic =    29.4031   Anisotropy =     8.9726

     11  H    Isotropic =    29.3230   Anisotropy =     6.1525

     12  C    Isotropic =   138.8334   Anisotropy =    46.0638

     13  H    Isotropic =    28.1799   Anisotropy =     7.5273

     14  H    Isotropic =    28.5788   Anisotropy =     5.7265

     15  C    Isotropic =   142.1451   Anisotropy =    45.9617

     16  H    Isotropic =    29.7206   Anisotropy =     7.8082

     17  H    Isotropic =    29.0158   Anisotropy =     8.7521

     18  Rh   Isotropic =  -325.4313   Anisotropy =   364.1286

     19  C    Isotropic =    73.0304   Anisotropy =   130.8549

     20  C    Isotropic =    81.1078   Anisotropy =   112.8184

     21  C    Isotropic =    74.7655   Anisotropy =   126.0962

     22  C    Isotropic =    77.1768   Anisotropy =   118.4292

     23  H    Isotropic =    27.0320   Anisotropy =     6.5483

     24  C    Isotropic =   154.0590   Anisotropy =    25.5215

     25  H    Isotropic =    26.7203   Anisotropy =     4.2521

     26  C    Isotropic =   148.2327   Anisotropy =    28.1533

     27  C    Isotropic =   153.9788   Anisotropy =    25.4820

     28  H    Isotropic =    26.6848   Anisotropy =     7.1851

     29  H    Isotropic =    26.5172   Anisotropy =     4.0377

     30  C    Isotropic =   148.4913   Anisotropy =    27.8050

     31  H    Isotropic =    29.7832   Anisotropy =     9.4402

     32  H    Isotropic =    29.9645   Anisotropy =    11.0156

     33  H    Isotropic =    29.1798   Anisotropy =    12.6713

     34  H    Isotropic =    29.3320   Anisotropy =     6.6029

     35  H    Isotropic =    29.8437   Anisotropy =    11.4503

     36  H    Isotropic =    29.7601   Anisotropy =     9.4507

     37  H    Isotropic =    29.1905   Anisotropy =    12.3630

     38  H    Isotropic =    29.2402   Anisotropy =     6.4706

     39  C    Isotropic =   166.2322   Anisotropy =    26.4515

     40  H    Isotropic =    31.0825   Anisotropy =    10.3824

     41  H    Isotropic =    30.6440   Anisotropy =     7.6798

     42  H    Isotropic =    31.2800   Anisotropy =    10.5460

     43  C    Isotropic =   165.5114   Anisotropy =    31.0647

     44  H    Isotropic =    30.8943   Anisotropy =     3.9293

     45  H    Isotropic =    30.7134   Anisotropy =     5.9839

     46  H    Isotropic =    30.9402   Anisotropy =    12.7102

     47  C    Isotropic =   169.9473   Anisotropy =    27.2052

     48  H    Isotropic =    30.2533   Anisotropy =     9.5304

     49  H    Isotropic =    30.7154   Anisotropy =    10.8139

     50  H    Isotropic =    31.0038   Anisotropy =     7.1404

     51  C    Isotropic =   173.5370   Anisotropy =    20.1601

     52  H    Isotropic =    31.6045   Anisotropy =     5.0397

     53  H    Isotropic =    30.4945   Anisotropy =     8.0470

     54  H    Isotropic =    31.2455   Anisotropy =    12.7974

     55  N    Isotropic =   185.5100   Anisotropy =    48.1062

     56  N    Isotropic =   188.3955   Anisotropy =    31.6286

     57  C    Isotropic =    45.1546   Anisotropy =   171.6115

     58  C    Isotropic =    48.4804   Anisotropy =   187.6715

     59  C    Isotropic =    50.3913   Anisotropy =   185.7200

     60  C    Isotropic =    48.0052   Anisotropy =   191.4936

     61  H    Isotropic =    24.7560   Anisotropy =    10.4687

     62  C    Isotropic =    48.5309   Anisotropy =   190.5133

     63  H    Isotropic =    24.2219   Anisotropy =    10.5156

     64  C    Isotropic =    45.8563   Anisotropy =   196.6795

     65  H    Isotropic =    24.1024   Anisotropy =     6.5527

     66  H    Isotropic =    24.0456   Anisotropy =     6.0805

     67  H    Isotropic =    24.0398   Anisotropy =     3.6809

     68  C    Isotropic =    46.7296   Anisotropy =   177.8911

     69  C    Isotropic =    45.6938   Anisotropy =   190.1858

     70  C    Isotropic =    49.6522   Anisotropy =   191.7937

     71  C    Isotropic =    48.2207   Anisotropy =   191.2608

     72  H    Isotropic =    24.3293   Anisotropy =    10.2147

     73  C    Isotropic =    48.8755   Anisotropy =   190.6294

     74  H    Isotropic =    24.0102   Anisotropy =     8.7489

     75  C    Isotropic =    45.3138   Anisotropy =   197.6007

     76  H    Isotropic =    23.9982   Anisotropy =     6.2085

     77  H    Isotropic =    23.9892   Anisotropy =     6.2063

     78  H    Isotropic =    23.9371   Anisotropy =     3.6352

 The electronic state is 1-A.
 Alpha  occ. eigenvalues --  -77.25289 -77.25239 -14.42834 -14.42680 -10.30272
 Alpha  occ. eigenvalues --  -10.30062 -10.29886 -10.29816 -10.29663 -10.29577
 Alpha  occ. eigenvalues --  -10.29362 -10.29232 -10.29227 -10.29153 -10.29095
 Alpha  occ. eigenvalues --  -10.28746 -10.28631 -10.28595 -10.28518 -10.27930
 Alpha  occ. eigenvalues --  -10.27891 -10.27847 -10.27800 -10.27764 -10.27761
 Alpha  occ. eigenvalues --  -10.27740 -10.27684 -10.27506 -10.27498 -10.25539
 Alpha  occ. eigenvalues --  -10.25465 -10.25416 -10.25109  -6.70926  -6.70894
 Alpha  occ. eigenvalues --   -4.87246  -4.87228  -4.87164  -4.87138  -4.86848
 Alpha  occ. eigenvalues --   -4.86789  -3.31686  -2.08588  -2.07908  -2.05121
 Alpha  occ. eigenvalues --   -1.02318  -1.02078  -0.96687  -0.96520  -0.94685
 Alpha  occ. eigenvalues --   -0.89420  -0.88512  -0.88222  -0.86782  -0.86187
 Alpha  occ. eigenvalues --   -0.86012  -0.85652  -0.85515  -0.84342  -0.82852
 Alpha  occ. eigenvalues --   -0.81922  -0.80574  -0.78043  -0.75079  -0.74019
 Alpha  occ. eigenvalues --   -0.73228  -0.72996  -0.71449  -0.71078  -0.70769
 Alpha  occ. eigenvalues --   -0.70046  -0.69462  -0.66176  -0.65716  -0.65521
 Alpha  occ. eigenvalues --   -0.62800  -0.62335  -0.62111  -0.60656  -0.59699
 Alpha  occ. eigenvalues --   -0.58597  -0.58119  -0.57226  -0.57002  -0.56519
 Alpha  occ. eigenvalues --   -0.56458  -0.56243  -0.55812  -0.55577  -0.55159
 Alpha  occ. eigenvalues --   -0.54520  -0.53862  -0.53203  -0.53126  -0.52872
 Alpha  occ. eigenvalues --   -0.52777  -0.52743  -0.52371  -0.51886  -0.51857
 Alpha  occ. eigenvalues --   -0.51140  -0.49939  -0.49043  -0.48666  -0.48556
 Alpha  occ. eigenvalues --   -0.48423  -0.48221  -0.48015  -0.47612  -0.47354
 Alpha  occ. eigenvalues --   -0.47007  -0.46764  -0.46492  -0.46197  -0.45961
 Alpha  occ. eigenvalues --   -0.45469  -0.45410  -0.45019  -0.44694  -0.44340
 Alpha  occ. eigenvalues --   -0.44087  -0.43821  -0.43455  -0.43355  -0.43244
 Alpha  occ. eigenvalues --   -0.42612  -0.41636  -0.38170  -0.37648  -0.36401
 Alpha  occ. eigenvalues --   -0.36303  -0.36272  -0.36078  -0.35518  -0.34656
 Alpha  occ. eigenvalues --   -0.33942  -0.33586  -0.32839  -0.30696
 Alpha virt. eigenvalues --   -0.16908  -0.14772  -0.13162  -0.11969  -0.11851
 Alpha virt. eigenvalues --   -0.11302  -0.09557  -0.07812  -0.07673  -0.07104
 Alpha virt. eigenvalues --   -0.06266  -0.06065  -0.05719  -0.04679  -0.04557

 Mulliken charges:
               1
     1  P    0.487462
     2  P    0.425905
     3  C   -0.599883
     4  H    0.197575
     5  H    0.216731
     6  C   -0.151149
     7  H    0.152149
     8  H    0.140200
     9  C   -0.147908
    10  H    0.149405
    11  H    0.160394
    12  C   -0.191473
    13  H    0.164439
    14  H    0.146373
    15  C   -0.143355
    16  H    0.164788
    17  H    0.157062
    18  Rh  -0.584934
    19  C   -0.010312
    20  C   -0.124467
    21  C    0.000107
    22  C   -0.111324
    23  H    0.207274
    24  C   -0.344530
    25  H    0.197070
    26  C   -0.235956
    27  C   -0.345774
    28  H    0.162285
    29  H    0.204305
    30  C   -0.238230
    31  H    0.168395
    32  H    0.170989
    33  H    0.172235
    34  H    0.136167
    35  H    0.170078
    36  H    0.168432
    37  H    0.172465
    38  H    0.134000
    39  C   -0.386663
    40  H    0.138712
    41  H    0.137404
    42  H    0.144880
    43  C   -0.345759
    44  H    0.109714
    45  H    0.128790
    46  H    0.146714
    47  C   -0.376019
    48  H    0.141022
    49  H    0.140423
    50  H    0.129933
    51  C   -0.368782
    52  H    0.114191
    53  H    0.131763
    54  H    0.150594
    55  N   -0.321951
    56  N   -0.338899
    57  C   -0.164434
    58  C   -0.135965
    59  C   -0.058153
    60  C   -0.081990
    61  H    0.154999
    62  C   -0.096345
    63  H    0.123640
    64  C   -0.099399
    65  H    0.133830
    66  H    0.134491
    67  H    0.141116
    68  C   -0.186770
    69  C   -0.084700
    70  C   -0.058717
    71  C   -0.091502
    72  H    0.147793
    73  C   -0.079374
    74  H    0.120599
    75  C   -0.100749
    76  H    0.134581
    77  H    0.133483
    78  H    0.140509
 Sum of Mulliken charges =   1.00000

 Dipole moment (field-independent basis, Debye):
    X=              0.2261    Y=             -0.2428    Z=              0.2440  Tot=              0.4118
 Quadrupole moment (field-independent basis, Debye-Ang):
   XX=           -184.0744   YY=           -197.5489   ZZ=           -202.4226
   XY=              1.6117   XZ=              3.3035   YZ=             -1.9663

 Summary of Natural Population Analysis:

                                       Natural Population
                Natural  -----------------------------------------------
    Atom  No    Charge         Core      Valence    Rydberg      Total
 -----------------------------------------------------------------------
      P    1    1.34633      9.99620     3.59621    0.06126    13.65367
      P    2    1.33550      9.99627     3.60708    0.06115    13.66450
      C    3   -1.04908      1.99942     5.02842    0.02124     7.04908
      H    4    0.25679      0.00000     0.74145    0.00177     0.74321
      H    5    0.25255      0.00000     0.74541    0.00204     0.74745
      C    6   -0.18854      1.99936     4.17526    0.01392     6.18854
      H    7    0.17846      0.00000     0.81884    0.00271     0.82154
      H    8    0.20930      0.00000     0.78788    0.00282     0.79070
      C    9   -0.21254      1.99936     4.19790    0.01527     6.21254
      H   10    0.20006      0.00000     0.79779    0.00215     0.79994
      H   11    0.20126      0.00000     0.79577    0.00298     0.79874
      C   12   -0.20843      1.99936     4.19554    0.01354     6.20843
      H   13    0.20839      0.00000     0.78898    0.00263     0.79161
      H   14    0.17632      0.00000     0.82060    0.00308     0.82368
      C   15   -0.21586      1.99935     4.20054    0.01597     6.21586
      H   16    0.20900      0.00000     0.78845    0.00256     0.79100
      H   17    0.20349      0.00000     0.79447    0.00204     0.79651
     Rh   18   -0.43028     35.98587     9.41516    0.02925    45.43028
      C   19   -0.15833      1.99906     4.13971    0.01956     6.15833
      C   20   -0.17728      1.99907     4.15800    0.02021     6.17728
      C   21   -0.16585      1.99907     4.14755    0.01923     6.16585
      C   22   -0.16884      1.99908     4.14891    0.02085     6.16884
      H   23    0.23098      0.00000     0.76672    0.00230     0.76902
      C   24   -0.42402      1.99936     4.41269    0.01197     6.42402
      H   25    0.22276      0.00000     0.77524    0.00200     0.77724
      C   26   -0.41827      1.99935     4.40606    0.01285     6.41827
      C   27   -0.42360      1.99936     4.41240    0.01184     6.42360
      H   28    0.22510      0.00000     0.77281    0.00209     0.77490
      H   29    0.22855      0.00000     0.76883    0.00262     0.77145
      C   30   -0.41900      1.99935     4.40649    0.01316     6.41900
      H   31    0.21497      0.00000     0.78304    0.00198     0.78503
      H   32    0.22964      0.00000     0.76890    0.00146     0.77036
      H   33    0.23346      0.00000     0.76459    0.00194     0.76654
      H   34    0.21498      0.00000     0.78340    0.00162     0.78502
      H   35    0.22954      0.00000     0.76900    0.00146     0.77046
      H   36    0.21514      0.00000     0.78291    0.00196     0.78486
      H   37    0.23370      0.00000     0.76441    0.00189     0.76630
      H   38    0.21464      0.00000     0.78370    0.00166     0.78536
      C   39   -0.60622      1.99945     4.60019    0.00658     6.60622
      H   40    0.21720      0.00000     0.78168    0.00112     0.78280
      H   41    0.20442      0.00000     0.79422    0.00135     0.79558
      H   42    0.20768      0.00000     0.79065    0.00167     0.79232
      C   43   -0.60179      1.99946     4.59621    0.00612     6.60179
      H   44    0.19356      0.00000     0.80481    0.00162     0.80644
      H   45    0.20522      0.00000     0.79329    0.00149     0.79478
      H   46    0.22077      0.00000     0.77809    0.00114     0.77923
      C   47   -0.60465      1.99945     4.59807    0.00713     6.60465
      H   48    0.20902      0.00000     0.78952    0.00146     0.79098
      H   49    0.21925      0.00000     0.77964    0.00111     0.78075
      H   50    0.20627      0.00000     0.79234    0.00139     0.79373
      C   51   -0.61372      1.99946     4.60801    0.00625     6.61372
      H   52    0.19570      0.00000     0.80272    0.00158     0.80430
      H   53    0.20311      0.00000     0.79552    0.00137     0.79689
      H   54    0.22448      0.00000     0.77447    0.00105     0.77552
      N   55   -0.72041      1.99956     5.69855    0.02230     7.72041
      N   56   -0.73557      1.99954     5.71310    0.02293     7.73557
      C   57   -0.36129      1.99899     4.33755    0.02475     6.36129
      C   58   -0.19759      1.99909     4.18258    0.01592     6.19759
      C   59   -0.19386      1.99909     4.17894    0.01582     6.19386
      C   60   -0.19099      1.99919     4.17712    0.01467     6.19099
      H   61    0.21336      0.00000     0.78480    0.00184     0.78664
      C   62   -0.18992      1.99920     4.17598    0.01475     6.18992
      H   63    0.20712      0.00000     0.79078    0.00211     0.79288
      C   64   -0.17910      1.99920     4.16524    0.01466     6.17910
      H   65    0.22294      0.00000     0.77583    0.00123     0.77706
      H   66    0.22243      0.00000     0.77634    0.00123     0.77757
      H   67    0.22392      0.00000     0.77491    0.00117     0.77608
      C   68   -0.36489      1.99899     4.34030    0.02560     6.36489
      C   69   -0.18439      1.99909     4.16969    0.01561     6.18439
      C   70   -0.19507      1.99909     4.17962    0.01636     6.19507
      C   71   -0.19162      1.99920     4.17790    0.01452     6.19162
      H   72    0.21472      0.00000     0.78334    0.00194     0.78528
      C   73   -0.19385      1.99919     4.17986    0.01480     6.19385
      H   74    0.20956      0.00000     0.78788    0.00256     0.79044
      C   75   -0.17672      1.99920     4.16287    0.01465     6.17672
      H   76    0.22322      0.00000     0.77555    0.00123     0.77678
      H   77    0.22264      0.00000     0.77611    0.00125     0.77736
      H   78    0.22406      0.00000     0.77476    0.00117     0.77594
 =======================================================================
   * Total *    1.00000    117.95535   187.33016    0.71450   306.00000

 Normal termination of Gaussian 16 at Tue Jan 21 13:56:49 2025.
