 Gaussian 16, Revision B.01,
 Gaussian 16:  ES64L-G16RevB.01 20-Dec-2017

 ------------------------------------------
 # nmr=giao b3lyp/genecp pop=nbo scfcyc=200
 ------------------------------------------

 ------------
 Ligand 4 SPE
 ------------
 Symbolic Z-matrix:
 Charge =  1 Multiplicity = 1

                         Standard orientation:
 ---------------------------------------------------------------------
 Center     Atomic      Atomic             Coordinates (Angstroms)
 Number     Number       Type             X           Y           Z
 ---------------------------------------------------------------------
      1          6           0        2.662928    0.048014    0.007810
      2          1           0        3.312688   -0.265115   -0.809760
      3          1           0        3.292267    0.385694    0.831500
      4          6           0        1.828750   -1.582312    2.315870
      5          1           0        2.840662   -1.974440    2.431790
      6          1           0        1.119652   -2.293355    2.737520
      7          1           0        1.738220   -0.646995    2.867030
      8          6           0        1.781047    1.637716   -2.310370
      9          1           0        2.778433    2.066178   -2.423550
     10          1           0        1.048285    2.320483   -2.738230
     11          1           0        1.727367    0.697394   -2.857820
     12          6           0       -2.124010   -1.594858   -0.089200
     13          1           0       -1.584231   -2.492231   -0.369180
     14          6           0       -1.991544   -1.170394    1.215570
     15          1           0       -1.390204   -1.784905    1.877780
     16          6           0       -2.837876   -0.142571    1.923750
     17          1           0       -3.729081   -0.624980    2.344170
     18          1           0       -2.267298    0.223467    2.780140
     19          6           0       -3.258935    1.056165    1.047240
     20          1           0       -3.515361    1.889027    1.703910
     21          1           0       -4.167387    0.822546    0.493110
     22          6           0       -2.179639    1.518110    0.086240
     23          1           0       -1.673039    2.434226    0.367610
     24          6           0       -2.028696    1.098595   -1.218160
     25          1           0       -1.447876    1.734133   -1.878780
     26          6           0       -2.836112    0.041379   -1.928500
     27          1           0       -3.742827    0.491880   -2.351120
     28          1           0       -2.250791   -0.304183   -2.783430
     29          6           0       -3.216524   -1.171653   -1.053060
     30          1           0       -4.134260   -0.970643   -0.501380
     31          1           0       -3.441317   -2.013081   -1.710390
     32         15           0        1.442490   -1.273865    0.534230
     33         15           0        1.398037    1.322864   -0.529180
     34         45           0       -0.481241   -0.008766    0.000570
     35          6           0        1.967210   -2.851838   -0.338810
     36          1           0        3.030693   -2.957974   -0.097300
     37          6           0        1.811636   -2.728383   -1.857330
     38          1           0        0.766742   -2.584386   -2.139330
     39          1           0        2.392060   -1.902834   -2.272780
     40          1           0        2.164825   -3.642802   -2.338080
     41          6           0        1.216769   -4.072082    0.207230
     42          1           0        1.565638   -4.971671   -0.303690
     43          1           0        1.380154   -4.222427    1.274610
     44          1           0        0.141427   -3.996696    0.031990
     45          6           0        1.861096    2.922509    0.339320
     46          1           0        2.921861    3.064693    0.104450
     47          6           0        1.072108    4.112984   -0.218030
     48          1           0       -0.001339    3.999779   -0.051610
     49          1           0        1.384149    5.026474    0.292070
     50          1           0        1.239153    4.264969   -1.284600
     51          6           0        1.699630    2.801314    1.857420
     52          1           0        0.658035    2.625460    2.133480
     53          1           0        2.303315    1.996733    2.280820
     54          1           0        2.020300    3.728904    2.335740
 ---------------------------------------------------------------------

 SCF Done:  E(RB3LYP) =  -1461.74598428     A.U. after   14 cycles

      1  C    Isotropic =   138.4536   Anisotropy =    52.7563

      2  H    Isotropic =    29.0057   Anisotropy =     7.2465

      3  H    Isotropic =    29.0039   Anisotropy =     7.1988

      4  C    Isotropic =   169.0245   Anisotropy =    28.8452

      5  H    Isotropic =    30.5610   Anisotropy =    11.5120

      6  H    Isotropic =    30.3874   Anisotropy =     8.3123

      7  H    Isotropic =    30.3749   Anisotropy =     7.7219

      8  C    Isotropic =   169.0421   Anisotropy =    28.8131

      9  H    Isotropic =    30.5637   Anisotropy =    11.5083

     10  H    Isotropic =    30.3868   Anisotropy =     8.3076

     11  H    Isotropic =    30.3678   Anisotropy =     7.7161

     12  C    Isotropic =    78.5839   Anisotropy =   122.6094

     13  H    Isotropic =    26.8022   Anisotropy =     6.5969

     14  C    Isotropic =    76.3831   Anisotropy =   117.7419

     15  H    Isotropic =    26.5514   Anisotropy =     4.4326

     16  C    Isotropic =   148.0401   Anisotropy =    29.5956

     17  H    Isotropic =    29.0930   Anisotropy =    12.3363

     18  H    Isotropic =    29.1527   Anisotropy =     7.7169

     19  C    Isotropic =   153.9778   Anisotropy =    25.0226

     20  H    Isotropic =    29.8526   Anisotropy =    11.3945

     21  H    Isotropic =    29.8108   Anisotropy =     9.1227

     22  C    Isotropic =    78.5946   Anisotropy =   122.5036

     23  H    Isotropic =    26.8030   Anisotropy =     6.5851

     24  C    Isotropic =    76.4053   Anisotropy =   117.6968

     25  H    Isotropic =    26.5504   Anisotropy =     4.4351

     26  C    Isotropic =   148.0394   Anisotropy =    29.5996

     27  H    Isotropic =    29.0902   Anisotropy =    12.3361

     28  H    Isotropic =    29.1516   Anisotropy =     7.7183

     29  C    Isotropic =   153.9683   Anisotropy =    25.0151

     30  H    Isotropic =    29.8110   Anisotropy =     9.1235

     31  H    Isotropic =    29.8506   Anisotropy =    11.3956

     32  P    Isotropic =   329.3015   Anisotropy =    99.6360

     33  P    Isotropic =   329.5381   Anisotropy =    99.7967

     34  Rh   Isotropic =  -314.2653   Anisotropy =   370.1270

     35  C    Isotropic =   143.6323   Anisotropy =    27.1164

     36  H    Isotropic =    30.0485   Anisotropy =     7.4324

     37  C    Isotropic =   164.8972   Anisotropy =    28.9124

     38  H    Isotropic =    30.6215   Anisotropy =     5.7218

     39  H    Isotropic =    30.5980   Anisotropy =     7.1373

     40  H    Isotropic =    30.4037   Anisotropy =    11.8121

     41  C    Isotropic =   166.6044   Anisotropy =    30.0937

     42  H    Isotropic =    30.5368   Anisotropy =    11.9778

     43  H    Isotropic =    30.7441   Anisotropy =     9.0298

     44  H    Isotropic =    31.3527   Anisotropy =     5.6809

     45  C    Isotropic =   143.6574   Anisotropy =    27.1235

     46  H    Isotropic =    30.0519   Anisotropy =     7.4284

     47  C    Isotropic =   166.5973   Anisotropy =    30.0878

     48  H    Isotropic =    31.3575   Anisotropy =     5.6728

     49  H    Isotropic =    30.5387   Anisotropy =    11.9733

     50  H    Isotropic =    30.7448   Anisotropy =     9.0310

     51  C    Isotropic =   164.9115   Anisotropy =    28.9302

     52  H    Isotropic =    30.6288   Anisotropy =     5.7320

     53  H    Isotropic =    30.6023   Anisotropy =     7.1353

     54  H    Isotropic =    30.4049   Anisotropy =    11.8211

 The electronic state is 1-A.
 Alpha  occ. eigenvalues --  -77.24270 -77.24268 -10.31267 -10.31222 -10.31218
 Alpha  occ. eigenvalues --  -10.30176 -10.30174 -10.29993 -10.29992 -10.29878
 Alpha  occ. eigenvalues --  -10.29877 -10.28455 -10.28454 -10.28214 -10.28214
 Alpha  occ. eigenvalues --  -10.27949 -10.27944 -10.27900 -10.27898  -6.70324
 Alpha  occ. eigenvalues --   -6.70322  -4.86624  -4.86621  -4.86513  -4.86511
 Alpha  occ. eigenvalues --   -4.86221  -4.86219  -3.32531  -2.09438  -2.08771
 Alpha  occ. eigenvalues --   -2.05951  -0.95492  -0.93250  -0.92129  -0.90252
 Alpha  occ. eigenvalues --   -0.88987  -0.88159  -0.85373  -0.82571  -0.81357
 Alpha  occ. eigenvalues --   -0.80491  -0.80246  -0.78842  -0.73884  -0.72323
 Alpha  occ. eigenvalues --   -0.71541  -0.67037  -0.66918  -0.66074  -0.63529
 Alpha  occ. eigenvalues --   -0.61169  -0.58944  -0.58443  -0.58072  -0.57636
 Alpha  occ. eigenvalues --   -0.57223  -0.57127  -0.55125  -0.54897  -0.54579
 Alpha  occ. eigenvalues --   -0.54412  -0.54161  -0.53576  -0.53473  -0.52829
 Alpha  occ. eigenvalues --   -0.52824  -0.51445  -0.51365  -0.50264  -0.49978
 Alpha  occ. eigenvalues --   -0.49220  -0.48831  -0.47557  -0.47468  -0.47000
 Alpha  occ. eigenvalues --   -0.46869  -0.46647  -0.46541  -0.45041  -0.44560
 Alpha  occ. eigenvalues --   -0.44434  -0.44167  -0.43310  -0.43097  -0.41685
 Alpha  occ. eigenvalues --   -0.37791  -0.37434  -0.36113  -0.35693  -0.34803
 Alpha  occ. eigenvalues --   -0.31770
 Alpha virt. eigenvalues --   -0.17391  -0.14895  -0.10404  -0.09529  -0.09457
 Alpha virt. eigenvalues --   -0.08883  -0.08036  -0.07484  -0.07338  -0.06426
 Alpha virt. eigenvalues --   -0.06030  -0.04899  -0.04889  -0.04387  -0.04052

 Mulliken charges:
               1
     1  C   -0.627780
     2  H    0.213379
     3  H    0.213303
     4  C   -0.467851
     5  H    0.168519
     6  H    0.167869
     7  H    0.163605
     8  C   -0.468177
     9  H    0.168558
    10  H    0.167963
    11  H    0.163627
    12  C   -0.018109
    13  H    0.169459
    14  C   -0.084099
    15  H    0.169918
    16  C   -0.223429
    17  H    0.175719
    18  H    0.132429
    19  C   -0.345659
    20  H    0.171877
    21  H    0.169679
    22  C   -0.018032
    23  H    0.169325
    24  C   -0.084338
    25  H    0.169921
    26  C   -0.223248
    27  H    0.175723
    28  H    0.132419
    29  C   -0.345637
    30  H    0.169655
    31  H    0.171877
    32  P    0.414061
    33  P    0.413921
    34  Rh  -0.492514
    35  C   -0.165428
    36  H    0.169055
    37  C   -0.376309
    38  H    0.132632
    39  H    0.120694
    40  H    0.162831
    41  C   -0.401582
    42  H    0.160236
    43  H    0.150909
    44  H    0.129906
    45  C   -0.165460
    46  H    0.169105
    47  C   -0.402021
    48  H    0.130142
    49  H    0.160183
    50  H    0.151105
    51  C   -0.375824
    52  H    0.132481
    53  H    0.120618
    54  H    0.162792
 Sum of Mulliken charges =   1.00000

 Dipole moment (field-independent basis, Debye):
    X=              2.5675    Y=              0.0426    Z=              0.0042  Tot=              2.5679
 Quadrupole moment (field-independent basis, Debye-Ang):
   XX=           -122.4646   YY=           -124.6091   ZZ=           -139.0452
   XY=              0.0311   XZ=              0.0358   YZ=             -1.4913

 Summary of Natural Population Analysis:

                                       Natural Population
                Natural  -----------------------------------------------
    Atom  No    Charge         Core      Valence    Rydberg      Total
 -----------------------------------------------------------------------
      C    1   -0.99475      1.99944     4.97771    0.01760     6.99475
      H    2    0.25784      0.00000     0.74029    0.00186     0.74216
      H    3    0.25796      0.00000     0.74018    0.00186     0.74204
      C    4   -0.90079      1.99942     4.89139    0.00999     6.90079
      H    5    0.23826      0.00000     0.75991    0.00182     0.76174
      H    6    0.24182      0.00000     0.75696    0.00122     0.75818
      H    7    0.24286      0.00000     0.75577    0.00137     0.75714
      C    8   -0.90081      1.99942     4.89140    0.00999     6.90081
      H    9    0.23824      0.00000     0.75993    0.00182     0.76176
      H   10    0.24185      0.00000     0.75693    0.00121     0.75815
      H   11    0.24283      0.00000     0.75579    0.00138     0.75717
      C   12   -0.16970      1.99907     4.15069    0.01994     6.16970
      H   13    0.22145      0.00000     0.77625    0.00230     0.77855
      C   14   -0.15878      1.99908     4.13965    0.02005     6.15878
      H   15    0.22159      0.00000     0.77654    0.00188     0.77841
      C   16   -0.41939      1.99935     4.40720    0.01284     6.41939
      H   17    0.23606      0.00000     0.76216    0.00179     0.76394
      H   18    0.21713      0.00000     0.78135    0.00152     0.78287
      C   19   -0.42479      1.99936     4.41340    0.01203     6.42479
      H   20    0.23020      0.00000     0.76839    0.00142     0.76980
      H   21    0.21617      0.00000     0.78194    0.00190     0.78383
      C   22   -0.16976      1.99907     4.15075    0.01994     6.16976
      H   23    0.22147      0.00000     0.77623    0.00230     0.77853
      C   24   -0.15874      1.99908     4.13961    0.02005     6.15874
      H   25    0.22159      0.00000     0.77653    0.00188     0.77841
      C   26   -0.41939      1.99935     4.40720    0.01284     6.41939
      H   27    0.23606      0.00000     0.76215    0.00179     0.76394
      H   28    0.21713      0.00000     0.78135    0.00152     0.78287
      C   29   -0.42479      1.99936     4.41339    0.01203     6.42479
      H   30    0.21617      0.00000     0.78193    0.00190     0.78383
      H   31    0.23020      0.00000     0.76839    0.00142     0.76980
      P   32    1.10780      9.99685     3.84888    0.04647    13.89220
      P   33    1.10787      9.99685     3.84881    0.04648    13.89213
     Rh   34   -0.42965     35.98593     9.41853    0.02519    45.42965
      C   35   -0.46000      1.99942     4.44538    0.01520     6.46000
      H   36    0.22096      0.00000     0.77678    0.00227     0.77904
      C   37   -0.59546      1.99942     4.58897    0.00707     6.59546
      H   38    0.21303      0.00000     0.78557    0.00141     0.78697
      H   39    0.20177      0.00000     0.79668    0.00155     0.79823
      H   40    0.22738      0.00000     0.77116    0.00145     0.77262
      C   41   -0.59867      1.99941     4.59187    0.00739     6.59867
      H   42    0.22895      0.00000     0.76961    0.00144     0.77105
      H   43    0.21240      0.00000     0.78632    0.00128     0.78760
      H   44    0.20405      0.00000     0.79446    0.00149     0.79595
      C   45   -0.46005      1.99942     4.44543    0.01519     6.46005
      H   46    0.22095      0.00000     0.77678    0.00226     0.77905
      C   47   -0.59871      1.99941     4.59191    0.00739     6.59871
      H   48    0.20405      0.00000     0.79446    0.00149     0.79595
      H   49    0.22895      0.00000     0.76961    0.00144     0.77105
      H   50    0.21243      0.00000     0.78629    0.00128     0.78757
      C   51   -0.59535      1.99942     4.58887    0.00707     6.59535
      H   52    0.21297      0.00000     0.78562    0.00141     0.78703
      H   53    0.20181      0.00000     0.79664    0.00155     0.79819
      H   54    0.22733      0.00000     0.77121    0.00145     0.77267
 =======================================================================
   * Total *    1.00000     89.96813   119.63119    0.40068   210.00000

 Normal termination of Gaussian 16 at Tue Nov  5 11:57:18 2024.
