 Gaussian 16, Revision B.01,
 Gaussian 16:  ES64L-G16RevB.01 20-Dec-2017

 ------------------------------------------
 # nmr=giao b3lyp/genecp pop=nbo scfcyc=200
 ------------------------------------------

 ---------
 MB-67_SPE
 ---------
 Symbolic Z-matrix:
 Charge =  1 Multiplicity = 1

                         Standard orientation:
 ---------------------------------------------------------------------
 Center     Atomic      Atomic             Coordinates (Angstroms)
 Number     Number       Type             X           Y           Z
 ---------------------------------------------------------------------
      1         15           0       -1.400951    0.324646   -0.552700
      2          6           0       -2.790330   -0.467077   -1.470190
      3          6           0       -2.531217   -1.528827   -2.344360
      4          6           0       -3.575445   -2.179409   -2.989600
      5          6           0       -4.891516   -1.790022   -2.756390
      6          6           0       -5.157659   -0.748793   -1.874850
      7          6           0       -4.114550   -0.089101   -1.231720
      8          1           0       -4.337882    0.725419   -0.555560
      9          1           0       -6.179210   -0.442895   -1.687350
     10          1           0       -5.704695   -2.298284   -3.258710
     11          1           0       -3.361914   -2.991619   -3.673070
     12          1           0       -1.515516   -1.858194   -2.527420
     13          6           0       -2.015695    1.975904   -0.033040
     14          6           0       -2.063256    2.298024    1.324400
     15          6           0       -2.528039    3.544743    1.733290
     16          6           0       -2.943061    4.476042    0.788900
     17          6           0       -2.895311    4.162102   -0.567780
     18          6           0       -2.435108    2.918203   -0.979210
     19          1           0       -2.414667    2.682404   -2.036630
     20          1           0       -3.218852    4.886552   -1.304550
     21          1           0       -3.303974    5.446191    1.106460
     22          1           0       -2.563400    3.787093    2.787940
     23          1           0       -1.729684    1.577355    2.060400
     24          6           0       -0.018562    0.659989   -1.775910
     25         15           0        1.383629    0.325393   -0.574690
     26          6           0        2.744131   -0.502284   -1.503210
     27          6           0        4.074850   -0.106181   -1.346200
     28          6           0        5.091951   -0.795159   -2.000730
     29          6           0        4.792814   -1.882649   -2.812780
     30          6           0        3.469965   -2.290252   -2.963720
     31          6           0        2.452453   -1.611205   -2.305910
     32          1           0        1.431494   -1.956257   -2.418350
     33          1           0        3.231277   -3.139663   -3.591390
     34          1           0        5.585665   -2.413657   -3.324030
     35          1           0        6.119030   -0.475956   -1.876110
     36          1           0        4.323708    0.743060   -0.724040
     37          6           0        2.023615    1.979784   -0.096090
     38          6           0        2.446312    2.895225   -1.067150
     39          6           0        2.920249    4.144486   -0.688860
     40          6           0        2.977579    4.491536    0.659330
     41          6           0        2.557721    3.588085    1.628200
     42          6           0        2.079764    2.335944    1.252410
     43          1           0        1.740545    1.639023    2.008040
     44          1           0        2.598920    3.856515    2.676290
     45          1           0        3.348866    5.465857    0.951110
     46          1           0        3.246438    4.847497   -1.444980
     47          1           0        2.417083    2.634295   -2.118440
     48          1           0       -0.023110   -0.099741   -2.556490
     49          1           0       -0.021845    1.646199   -2.238060
     50         45           0        0.005651   -0.886741    0.910810
     51          6           0       -1.399627   -1.707504    2.504940
     52          6           0       -1.454025   -2.530354    1.398880
     53          6           0        1.461155   -2.519287    1.551410
     54          6           0        1.514093   -1.491217    2.469530
     55          6           0       -0.636066   -1.996992    3.784090
     56          1           0       -2.166678   -0.943716    2.580740
     57          1           0       -2.273625   -2.374696    0.705630
     58          6           0       -0.713141   -3.830032    1.202610
     59          6           0        0.731529   -3.835679    1.745330
     60          1           0        2.202685   -2.508925    0.760400
     61          6           0        0.799113   -1.425249    3.796760
     62          1           0        2.320941   -0.773595    2.356240
     63          1           0       -1.186197   -1.564374    4.621310
     64          1           0       -0.617313   -3.071712    3.963620
     65          1           0       -1.283700   -4.649994    1.656710
     66          1           0       -0.694011   -4.040342    0.131200
     67          1           0        0.740009   -4.105419    2.801160
     68          1           0        1.291130   -4.618978    1.231470
     69          1           0        0.762120   -0.377049    4.102680
     70          1           0        1.393784   -1.936417    4.564020
 ---------------------------------------------------------------------

 SCF Done:  E(RB3LYP) =  -2071.61173770     A.U. after   16 cycles

      1  P    Isotropic =   315.2887   Anisotropy =   107.4813

      2  C    Isotropic =    43.3155   Anisotropy =   167.7778

      3  C    Isotropic =    50.0272   Anisotropy =   184.0097

      4  C    Isotropic =    48.9285   Anisotropy =   189.2317

      5  C    Isotropic =    46.3284   Anisotropy =   195.8472

      6  C    Isotropic =    48.4669   Anisotropy =   190.1876

      7  C    Isotropic =    46.8831   Anisotropy =   191.5303

      8  H    Isotropic =    25.1471   Anisotropy =    13.0564

      9  H    Isotropic =    24.3566   Anisotropy =     6.5830

     10  H    Isotropic =    24.0635   Anisotropy =     3.8378

     11  H    Isotropic =    23.9097   Anisotropy =     6.5376

     12  H    Isotropic =    23.7008   Anisotropy =    10.6076

     13  C    Isotropic =    46.6190   Anisotropy =   173.7963

     14  C    Isotropic =    41.1179   Anisotropy =   181.7861

     15  C    Isotropic =    49.6643   Anisotropy =   188.8749

     16  C    Isotropic =    44.7580   Anisotropy =   200.0667

     17  C    Isotropic =    48.0958   Anisotropy =   192.2547

     18  C    Isotropic =    46.7350   Anisotropy =   190.1534

     19  H    Isotropic =    24.5494   Anisotropy =    11.0027

     20  H    Isotropic =    24.2997   Anisotropy =     5.5156

     21  H    Isotropic =    24.1390   Anisotropy =     3.5260

     22  H    Isotropic =    24.2401   Anisotropy =     6.5020

     23  H    Isotropic =    23.7003   Anisotropy =     9.8926

     24  C    Isotropic =   126.5798   Anisotropy =    43.6653

     25  P    Isotropic =   316.2439   Anisotropy =   110.7499

     26  C    Isotropic =    43.5594   Anisotropy =   167.3734

     27  C    Isotropic =    46.7605   Anisotropy =   191.7440

     28  C    Isotropic =    48.7099   Anisotropy =   189.7034

     29  C    Isotropic =    46.2978   Anisotropy =   195.7211

     30  C    Isotropic =    48.8629   Anisotropy =   189.1424

     31  C    Isotropic =    49.5293   Anisotropy =   184.4128

     32  H    Isotropic =    23.6673   Anisotropy =    10.6584

     33  H    Isotropic =    23.9348   Anisotropy =     6.6197

     34  H    Isotropic =    24.0845   Anisotropy =     3.8620

     35  H    Isotropic =    24.3747   Anisotropy =     6.5626

     36  H    Isotropic =    25.0825   Anisotropy =    13.0331

     37  C    Isotropic =    46.3920   Anisotropy =   172.9033

     38  C    Isotropic =    46.5292   Anisotropy =   189.9649

     39  C    Isotropic =    48.1419   Anisotropy =   192.1927

     40  C    Isotropic =    44.7934   Anisotropy =   200.0995

     41  C    Isotropic =    49.5090   Anisotropy =   189.1918

     42  C    Isotropic =    41.5890   Anisotropy =   182.0795

     43  H    Isotropic =    23.7313   Anisotropy =     9.5741

     44  H    Isotropic =    24.2398   Anisotropy =     6.5453

     45  H    Isotropic =    24.1300   Anisotropy =     3.5987

     46  H    Isotropic =    24.2682   Anisotropy =     5.5048

     47  H    Isotropic =    24.5105   Anisotropy =    11.0076

     48  H    Isotropic =    27.3003   Anisotropy =     2.8537

     49  H    Isotropic =    28.1089   Anisotropy =     8.6090

     50  Rh   Isotropic =  -310.5886   Anisotropy =   338.5314

     51  C    Isotropic =    80.5851   Anisotropy =   117.9910

     52  C    Isotropic =    71.2968   Anisotropy =   124.9148

     53  C    Isotropic =    73.2772   Anisotropy =   129.2573

     54  C    Isotropic =    79.1556   Anisotropy =   111.9757

     55  C    Isotropic =   154.0235   Anisotropy =    25.1657

     56  H    Isotropic =    26.9561   Anisotropy =     7.1021

     57  H    Isotropic =    26.9841   Anisotropy =     4.1539

     58  C    Isotropic =   147.5534   Anisotropy =    29.3713

     59  C    Isotropic =   153.6677   Anisotropy =    25.4023

     60  H    Isotropic =    27.3733   Anisotropy =     5.2904

     61  C    Isotropic =   147.8699   Anisotropy =    29.8538

     62  H    Isotropic =    26.4737   Anisotropy =     4.7222

     63  H    Isotropic =    29.7501   Anisotropy =    11.8658

     64  H    Isotropic =    29.7709   Anisotropy =     9.3818

     65  H    Isotropic =    29.3006   Anisotropy =    12.2561

     66  H    Isotropic =    29.1157   Anisotropy =     7.3443

     67  H    Isotropic =    29.8129   Anisotropy =     9.4535

     68  H    Isotropic =    29.9699   Anisotropy =    10.8702

     69  H    Isotropic =    28.8959   Anisotropy =     8.5683

     70  H    Isotropic =    29.0142   Anisotropy =    12.6564

 The electronic state is 1-A.
 Alpha  occ. eigenvalues --  -77.23965 -77.23959 -10.30426 -10.29791 -10.29780
 Alpha  occ. eigenvalues --  -10.29683 -10.29654 -10.29185 -10.29138 -10.29070
 Alpha  occ. eigenvalues --  -10.28910 -10.28609 -10.28584 -10.28562 -10.28556
 Alpha  occ. eigenvalues --  -10.28534 -10.28528 -10.28222 -10.28214 -10.27843
 Alpha  occ. eigenvalues --  -10.27826 -10.27758 -10.27736 -10.27726 -10.27720
 Alpha  occ. eigenvalues --  -10.27719 -10.27699 -10.27691 -10.27600 -10.27558
 Alpha  occ. eigenvalues --  -10.27552 -10.27501 -10.27493 -10.27404 -10.27370
 Alpha  occ. eigenvalues --   -6.69941  -6.69935  -4.86225  -4.86219  -4.86164
 Alpha  occ. eigenvalues --   -4.86158  -4.85843  -4.85835  -3.31787  -2.08686
 Alpha  occ. eigenvalues --   -2.07999  -2.05260  -0.97050  -0.96844  -0.96264
 Alpha  occ. eigenvalues --   -0.96242  -0.94548  -0.89825  -0.89272  -0.88108
 Alpha  occ. eigenvalues --   -0.87459  -0.85521  -0.85511  -0.85462  -0.85417
 Alpha  occ. eigenvalues --   -0.85070  -0.85017  -0.83868  -0.80440  -0.77916
 Alpha  occ. eigenvalues --   -0.75837  -0.73560  -0.71475  -0.71355  -0.71205
 Alpha  occ. eigenvalues --   -0.71058  -0.70676  -0.70436  -0.70383  -0.67207
 Alpha  occ. eigenvalues --   -0.66848  -0.65947  -0.62899  -0.62611  -0.62397
 Alpha  occ. eigenvalues --   -0.61848  -0.60586  -0.60111  -0.57255  -0.57167
 Alpha  occ. eigenvalues --   -0.56405  -0.56365  -0.56292  -0.56213  -0.55918
 Alpha  occ. eigenvalues --   -0.55609  -0.55470  -0.55223  -0.54924  -0.53751
 Alpha  occ. eigenvalues --   -0.53637  -0.52952  -0.52880  -0.52785  -0.52771
 Alpha  occ. eigenvalues --   -0.52676  -0.52645  -0.51463  -0.50252  -0.49137
 Alpha  occ. eigenvalues --   -0.48888  -0.48500  -0.48054  -0.47747  -0.47489
 Alpha  occ. eigenvalues --   -0.47279  -0.46351  -0.46195  -0.46097  -0.45401
 Alpha  occ. eigenvalues --   -0.45352  -0.45227  -0.45202  -0.44167  -0.43678
 Alpha  occ. eigenvalues --   -0.43648  -0.43390  -0.43242  -0.42897  -0.41551
 Alpha  occ. eigenvalues --   -0.38326  -0.37765  -0.36952  -0.36517  -0.36314
 Alpha  occ. eigenvalues --   -0.36111  -0.36010  -0.35835  -0.35812  -0.34968
 Alpha  occ. eigenvalues --   -0.34833  -0.34704  -0.34032  -0.30986
 Alpha virt. eigenvalues --   -0.16587  -0.15121  -0.14117  -0.13351  -0.13267
 Alpha virt. eigenvalues --   -0.12318  -0.11867  -0.10989  -0.10786  -0.10724
 Alpha virt. eigenvalues --   -0.09438  -0.07780  -0.07164  -0.06727  -0.05992

 Mulliken charges:
               1
     1  P    0.317927
     2  C   -0.180771
     3  C   -0.057370
     4  C   -0.112488
     5  C   -0.093349
     6  C   -0.101055
     7  C   -0.053356
     8  H    0.160768
     9  H    0.136315
    10  H    0.140906
    11  H    0.130909
    12  H    0.135705
    13  C   -0.223864
    14  C   -0.022640
    15  C   -0.107127
    16  C   -0.096904
    17  C   -0.080728
    18  C   -0.090823
    19  H    0.146754
    20  H    0.137007
    21  H    0.140720
    22  H    0.130604
    23  H    0.135393
    24  C   -0.588143
    25  P    0.296341
    26  C   -0.167807
    27  C   -0.059562
    28  C   -0.101031
    29  C   -0.093337
    30  C   -0.114930
    31  C   -0.057445
    32  H    0.142256
    33  H    0.131137
    34  H    0.140801
    35  H    0.136587
    36  H    0.161610
    37  C   -0.212291
    38  C   -0.093214
    39  C   -0.081151
    40  C   -0.094291
    41  C   -0.113488
    42  C   -0.024480
    43  H    0.147759
    44  H    0.130243
    45  H    0.140621
    46  H    0.137198
    47  H    0.148239
    48  H    0.206346
    49  H    0.213011
    50  Rh  -0.498159
    51  C   -0.002645
    52  C   -0.114155
    53  C   -0.028764
    54  C   -0.085296
    55  C   -0.347998
    56  H    0.174552
    57  H    0.218351
    58  C   -0.228862
    59  C   -0.355471
    60  H    0.208942
    61  C   -0.223695
    62  H    0.182713
    63  H    0.169588
    64  H    0.167425
    65  H    0.172469
    66  H    0.129894
    67  H    0.167181
    68  H    0.169276
    69  H    0.127978
    70  H    0.173163
 Sum of Mulliken charges =   1.00000

 Dipole moment (field-independent basis, Debye):
    X=              0.0048    Y=              0.3859    Z=             -0.3298  Tot=              0.5077
 Quadrupole moment (field-independent basis, Debye-Ang):
   XX=           -188.4542   YY=           -186.9204   ZZ=           -203.5689
   XY=              0.0916   XZ=             -0.2395   YZ=              5.8111

 Summary of Natural Population Analysis:

                                       Natural Population
                Natural  -----------------------------------------------
    Atom  No    Charge         Core      Valence    Rydberg      Total
 -----------------------------------------------------------------------
      P    1    1.12035      9.99647     3.83285    0.05033    13.87965
      C    2   -0.34033      1.99899     4.31786    0.02348     6.34033
      C    3   -0.19889      1.99909     4.18443    0.01537     6.19889
      C    4   -0.19122      1.99920     4.17726    0.01476     6.19122
      C    5   -0.18001      1.99920     4.16611    0.01470     6.18001
      C    6   -0.18782      1.99920     4.17394    0.01468     6.18782
      C    7   -0.19370      1.99910     4.17933    0.01528     6.19370
      H    8    0.22408      0.00000     0.77418    0.00174     0.77592
      H    9    0.22359      0.00000     0.77520    0.00121     0.77641
      H   10    0.22372      0.00000     0.77511    0.00117     0.77628
      H   11    0.22159      0.00000     0.77717    0.00123     0.77841
      H   12    0.20495      0.00000     0.79292    0.00213     0.79505
      C   13   -0.34967      1.99900     4.32637    0.02430     6.34967
      C   14   -0.17879      1.99909     4.16425    0.01545     6.17879
      C   15   -0.19598      1.99920     4.18222    0.01456     6.19598
      C   16   -0.17320      1.99921     4.15950    0.01450     6.17320
      C   17   -0.19159      1.99920     4.17782    0.01457     6.19159
      C   18   -0.18890      1.99909     4.17385    0.01596     6.18890
      H   19    0.21575      0.00000     0.78217    0.00208     0.78425
      H   20    0.22358      0.00000     0.77519    0.00123     0.77642
      H   21    0.22315      0.00000     0.77567    0.00117     0.77685
      H   22    0.22140      0.00000     0.77737    0.00123     0.77860
      H   23    0.21886      0.00000     0.77915    0.00199     0.78114
      C   24   -0.96357      1.99942     4.94612    0.01802     6.96357
      P   25    1.12143      9.99648     3.83164    0.05044    13.87857
      C   26   -0.34015      1.99899     4.31756    0.02360     6.34015
      C   27   -0.19321      1.99910     4.17885    0.01526     6.19321
      C   28   -0.18816      1.99920     4.17427    0.01469     6.18816
      C   29   -0.17981      1.99920     4.16591    0.01470     6.17981
      C   30   -0.19173      1.99920     4.17778    0.01475     6.19173
      C   31   -0.19790      1.99909     4.18357    0.01524     6.19790
      H   32    0.20610      0.00000     0.79184    0.00207     0.79390
      H   33    0.22141      0.00000     0.77736    0.00123     0.77859
      H   34    0.22362      0.00000     0.77521    0.00117     0.77638
      H   35    0.22352      0.00000     0.77527    0.00121     0.77648
      H   36    0.22419      0.00000     0.77406    0.00175     0.77581
      C   37   -0.34993      1.99900     4.32672    0.02420     6.34993
      C   38   -0.18999      1.99909     4.17493    0.01597     6.18999
      C   39   -0.19178      1.99920     4.17800    0.01459     6.19178
      C   40   -0.17314      1.99921     4.15944    0.01449     6.17314
      C   41   -0.19560      1.99920     4.18183    0.01457     6.19560
      C   42   -0.17873      1.99909     4.16416    0.01548     6.17873
      H   43    0.21754      0.00000     0.78033    0.00214     0.78246
      H   44    0.22149      0.00000     0.77728    0.00123     0.77851
      H   45    0.22325      0.00000     0.77558    0.00117     0.77675
      H   46    0.22364      0.00000     0.77512    0.00123     0.77636
      H   47    0.21603      0.00000     0.78189    0.00208     0.78397
      H   48    0.25745      0.00000     0.74093    0.00161     0.74255
      H   49    0.25753      0.00000     0.74059    0.00188     0.74247
     Rh   50   -0.41015     35.98582     9.39418    0.03015    45.41015
      C   51   -0.18421      1.99906     4.16560    0.01954     6.18421
      C   52   -0.14835      1.99907     4.12940    0.01987     6.14835
      C   53   -0.15622      1.99906     4.13784    0.01931     6.15622
      C   54   -0.17358      1.99907     4.15457    0.01994     6.17358
      C   55   -0.42268      1.99936     4.41166    0.01166     6.42268
      H   56    0.22545      0.00000     0.77259    0.00196     0.77455
      H   57    0.23215      0.00000     0.76592    0.00193     0.76785
      C   58   -0.41820      1.99935     4.40623    0.01262     6.41820
      C   59   -0.42464      1.99936     4.41346    0.01183     6.42464
      H   60    0.23142      0.00000     0.76660    0.00198     0.76858
      C   61   -0.41913      1.99936     4.40749    0.01228     6.41913
      H   62    0.22569      0.00000     0.77236    0.00195     0.77431
      H   63    0.22848      0.00000     0.77001    0.00151     0.77152
      H   64    0.21536      0.00000     0.78269    0.00195     0.78464
      H   65    0.23397      0.00000     0.76414    0.00190     0.76603
      H   66    0.21555      0.00000     0.78284    0.00160     0.78445
      H   67    0.21488      0.00000     0.78314    0.00198     0.78512
      H   68    0.22911      0.00000     0.76944    0.00145     0.77089
      H   69    0.21629      0.00000     0.78223    0.00148     0.78371
      H   70    0.23436      0.00000     0.76372    0.00192     0.76564
 =======================================================================
   * Total *    1.00000    121.95105   183.32228    0.72668   306.00000

 Normal termination of Gaussian 16 at Tue Jan 21 15:12:46 2025.
