 Gaussian 16, Revision B.01,
 Gaussian 16:  ES64L-G16RevB.01 20-Dec-2017

 ------------------------------------------
 # nmr=giao b3lyp/genecp pop=nbo scfcyc=200
 ------------------------------------------

 ---------
 MB-66_SPE
 ---------
 Symbolic Z-matrix:
 Charge =  1 Multiplicity = 1

                         Standard orientation:
 ---------------------------------------------------------------------
 Center     Atomic      Atomic             Coordinates (Angstroms)
 Number     Number       Type             X           Y           Z
 ---------------------------------------------------------------------
      1         15           0       -1.431350    0.607058   -0.176680
      2         15           0        1.332210    0.357200   -0.134260
      3          6           0        0.057789    1.624139   -0.662030
      4          6           0       -4.620439   -0.489165   -2.171460
      5          6           0       -2.526123    4.134307    1.380020
      6          6           0        4.098652   -1.488967   -2.310500
      7          6           0        5.034249    1.817424   -0.089760
      8          1           0        0.082458    2.518679   -0.040360
      9          1           0        0.104839    1.936349   -1.706480
     10          1           0       -4.601479   -0.479785   -3.271910
     11          1           0       -4.832250    0.535425   -1.859230
     12          1           0       -3.488493    4.193746    1.915010
     13          1           0       -1.790873    3.759808    2.095080
     14          1           0        3.937072   -1.553317   -3.397370
     15          1           0        4.576491   -0.525077   -2.127960
     16          1           0        5.440639    2.133774    0.883010
     17          1           0        5.168760    0.735084   -0.141710
     18         45           0       -0.193009   -0.933091    1.117900
     19          6           0       -1.745098   -1.483372    2.713280
     20          6           0       -1.793127   -2.414962    1.699230
     21          6           0        1.109783   -2.560190    2.032000
     22          6           0        1.166032   -1.439940    2.836510
     23          6           0       -1.077558   -1.682722    4.060720
     24          1           0       -2.459369   -0.669153    2.663660
     25          1           0       -2.553878   -2.273833    0.938920
     26          6           0       -1.130656   -3.770772    1.692870
     27          6           0        0.285674   -3.803231    2.312140
     28          1           0        1.905103   -2.676209    1.304220
     29          6           0        0.384341   -1.192370    4.103320
     30          1           0        2.024421   -0.788179    2.713810
     31          1           0       -1.647799   -1.138592    4.815650
     32          1           0       -1.134067   -2.733552    4.344240
     33          1           0       -1.772396   -4.498752    2.204960
     34          1           0       -1.072816   -4.106532    0.655260
     35          1           0        0.223584   -3.966091    3.388170
     36          1           0        0.816015   -4.668060    1.910070
     37          1           0        0.394531   -0.116930    4.294000
     38          1           0        0.905452   -1.651070    4.953290
     39          6           0       -2.610741    1.786527    0.730300
     40          1           0       -2.279241    1.739917    1.766990
     41          1           0       -3.597631    1.304896    0.693150
     42          6           0       -2.282810    0.155517   -1.797960
     43          1           0       -1.494719   -0.154102   -2.494150
     44          1           0       -2.706660    1.075297   -2.202750
     45          6           0        2.055351   -0.268809   -1.750160
     46          1           0        2.701340    0.545712   -2.084210
     47          1           0        1.234901   -0.356660   -2.474640
     48          6           0        2.794829    1.230722    0.687850
     49          1           0        3.403870    0.410612    1.072240
     50          1           0        2.383719    1.749011    1.563010
     51          6           0        5.046413   -2.597996   -1.869850
     52          1           0        6.008963   -2.477666   -2.370060
     53          1           0        5.214033   -2.562086   -0.791530
     54          1           0        4.673494   -3.591107   -2.124380
     55          6           0        5.838008    2.464864   -1.210740
     56          1           0        5.843507    3.553554   -1.145290
     57          1           0        6.876349    2.133675   -1.153150
     58          1           0        5.443629    2.184734   -2.189650
     59          6           0       -2.108174    5.532727    0.942880
     60          1           0       -2.843485    5.997407    0.285200
     61          1           0       -2.010135    6.174077    1.820890
     62          1           0       -1.148294    5.512408    0.423370
     63          6           0       -5.753068   -1.386026   -1.687450
     64          1           0       -5.787868   -1.415486   -0.596690
     65          1           0       -6.706969   -0.999387   -2.050180
     66          1           0       -5.659487   -2.408906   -2.054680
     67          6           0        3.196167    3.490572   -0.177130
     68          1           0        2.115307    3.534021   -0.319240
     69          1           0        3.626697    3.960482   -1.062330
     70          6           0        3.582437    4.298892    1.067620
     71          1           0        3.204176    5.319182    0.977070
     72          1           0        3.165077    3.873832    1.983400
     73          1           0        4.664357    4.362093    1.191890
     74          6           0        2.025333   -2.708169   -1.689120
     75          1           0        1.137673   -2.568810   -1.065540
     76          1           0        2.587854   -3.527029   -1.236960
     77          6           0        1.600203   -3.111469   -3.106770
     78          1           0        0.964164   -3.998030   -3.062800
     79          1           0        1.032792   -2.325140   -3.609630
     80          1           0        2.457393   -3.356819   -3.735340
     81          6           0       -2.849048   -2.214113   -1.903410
     82          1           0       -1.891008   -2.343222   -1.393520
     83          1           0       -3.538967   -2.917234   -1.433620
     84          6           0       -2.694147   -2.570313   -3.386790
     85          1           0       -2.013568   -1.891723   -3.906180
     86          1           0       -2.288876   -3.579423   -3.484410
     87          1           0       -3.650017   -2.550404   -3.912020
     88          6           0       -3.615753    3.490656   -0.744340
     89          1           0       -4.190512    2.589876   -0.974610
     90          1           0       -4.338033    4.199315   -0.321680
     91          6           0       -3.040853    4.063147   -2.038740
     92          1           0       -2.354072    3.359837   -2.514300
     93          1           0       -3.845183    4.280336   -2.745840
     94          1           0       -2.492154    4.986987   -1.858830
     95          7           0       -2.604882    3.159047    0.277150
     96          7           0       -3.310329   -0.849804   -1.605730
     97          7           0        3.585629    2.071542   -0.182470
     98          7           0        2.826462   -1.481928   -1.568950
 ---------------------------------------------------------------------

 SCF Done:  E(RB3LYP) =  -2155.05777578     A.U. after   15 cycles

      1  P    Isotropic =   333.6407   Anisotropy =    88.7484

      2  P    Isotropic =   329.9480   Anisotropy =    96.1563

      3  C    Isotropic =   149.1627   Anisotropy =    45.0963

      4  C    Isotropic =   132.7382   Anisotropy =    55.5485

      5  C    Isotropic =   122.3427   Anisotropy =    65.6252

      6  C    Isotropic =   133.2737   Anisotropy =    56.0491

      7  C    Isotropic =   132.5737   Anisotropy =    57.7557

      8  H    Isotropic =    28.9139   Anisotropy =     6.2707

      9  H    Isotropic =    29.8571   Anisotropy =     7.8261

     10  H    Isotropic =    28.8447   Anisotropy =     7.6364

     11  H    Isotropic =    29.5650   Anisotropy =     6.2516

     12  H    Isotropic =    28.9192   Anisotropy =     7.8594

     13  H    Isotropic =    29.4940   Anisotropy =     5.7454

     14  H    Isotropic =    28.8855   Anisotropy =     7.5845

     15  H    Isotropic =    29.6381   Anisotropy =     7.3574

     16  H    Isotropic =    28.8181   Anisotropy =     7.3650

     17  H    Isotropic =    29.7484   Anisotropy =     5.3564

     18  Rh   Isotropic =  -311.6185   Anisotropy =   339.4271

     19  C    Isotropic =    77.5930   Anisotropy =   122.9898

     20  C    Isotropic =    77.9848   Anisotropy =   117.6043

     21  C    Isotropic =    81.9421   Anisotropy =   119.4623

     22  C    Isotropic =    79.0501   Anisotropy =   112.5065

     23  C    Isotropic =   153.9049   Anisotropy =    25.5071

     24  H    Isotropic =    26.9708   Anisotropy =     6.5513

     25  H    Isotropic =    26.3673   Anisotropy =     5.1447

     26  C    Isotropic =   147.4055   Anisotropy =    27.8557

     27  C    Isotropic =   154.0675   Anisotropy =    24.5891

     28  H    Isotropic =    27.2583   Anisotropy =     6.2459

     29  C    Isotropic =   146.8424   Anisotropy =    31.8261

     30  H    Isotropic =    26.4628   Anisotropy =     4.4573

     31  H    Isotropic =    29.9647   Anisotropy =    11.5510

     32  H    Isotropic =    29.8486   Anisotropy =     9.4259

     33  H    Isotropic =    29.1809   Anisotropy =    12.4533

     34  H    Isotropic =    29.2669   Anisotropy =     6.5416

     35  H    Isotropic =    29.8654   Anisotropy =     9.9578

     36  H    Isotropic =    29.9226   Anisotropy =    10.8101

     37  H    Isotropic =    29.2031   Anisotropy =     7.5233

     38  H    Isotropic =    29.1721   Anisotropy =    12.6392

     39  C    Isotropic =   120.3894   Anisotropy =    72.8391

     40  H    Isotropic =    28.8343   Anisotropy =     9.1867

     41  H    Isotropic =    28.5936   Anisotropy =     4.0876

     42  C    Isotropic =   124.4621   Anisotropy =    66.8568

     43  H    Isotropic =    28.9817   Anisotropy =     4.9259

     44  H    Isotropic =    28.7787   Anisotropy =     5.4649

     45  C    Isotropic =   128.3452   Anisotropy =    79.3306

     46  H    Isotropic =    27.8609   Anisotropy =     4.4419

     47  H    Isotropic =    29.0769   Anisotropy =     5.4086

     48  C    Isotropic =   128.0081   Anisotropy =    67.4090

     49  H    Isotropic =    29.1493   Anisotropy =     6.4148

     50  H    Isotropic =    28.4762   Anisotropy =     7.4638

     51  C    Isotropic =   170.1575   Anisotropy =    25.4055

     52  H    Isotropic =    30.7827   Anisotropy =    11.9835

     53  H    Isotropic =    31.1071   Anisotropy =     6.7873

     54  H    Isotropic =    30.6786   Anisotropy =     7.9666

     55  C    Isotropic =   170.3331   Anisotropy =    24.4923

     56  H    Isotropic =    30.6434   Anisotropy =     8.5820

     57  H    Isotropic =    30.7715   Anisotropy =    11.6593

     58  H    Isotropic =    30.9285   Anisotropy =     6.6853

     59  C    Isotropic =   166.7640   Anisotropy =    24.9225

     60  H    Isotropic =    30.7140   Anisotropy =     7.6561

     61  H    Isotropic =    30.6873   Anisotropy =    11.5467

     62  H    Isotropic =    30.8250   Anisotropy =     6.0502

     63  C    Isotropic =   170.0087   Anisotropy =    25.5729

     64  H    Isotropic =    31.0511   Anisotropy =     6.9345

     65  H    Isotropic =    30.7611   Anisotropy =    12.1443

     66  H    Isotropic =    30.6735   Anisotropy =     7.9112

     67  C    Isotropic =   138.4593   Anisotropy =    48.3131

     68  H    Isotropic =    29.4781   Anisotropy =     7.5946

     69  H    Isotropic =    28.7875   Anisotropy =     6.5670

     70  C    Isotropic =   180.6836   Anisotropy =    11.2153

     71  H    Isotropic =    31.3132   Anisotropy =    11.2160

     72  H    Isotropic =    30.8860   Anisotropy =     6.2799

     73  H    Isotropic =    30.7033   Anisotropy =     9.4560

     74  C    Isotropic =   138.7213   Anisotropy =    39.1323

     75  H    Isotropic =    28.2806   Anisotropy =    10.8030

     76  H    Isotropic =    28.8078   Anisotropy =     5.2815

     77  C    Isotropic =   181.0102   Anisotropy =    10.7385

     78  H    Isotropic =    31.2475   Anisotropy =     9.5532

     79  H    Isotropic =    30.8602   Anisotropy =     6.7281

     80  H    Isotropic =    30.6628   Anisotropy =    10.0748

     81  C    Isotropic =   138.4843   Anisotropy =    40.6724

     82  H    Isotropic =    28.8745   Anisotropy =     9.0376

     83  H    Isotropic =    28.8022   Anisotropy =     5.3496

     84  C    Isotropic =   180.3646   Anisotropy =    11.1556

     85  H    Isotropic =    30.9470   Anisotropy =     6.2786

     86  H    Isotropic =    31.2096   Anisotropy =    10.0206

     87  H    Isotropic =    30.6554   Anisotropy =     9.9802

     88  C    Isotropic =   127.7483   Anisotropy =    67.5349

     89  H    Isotropic =    29.6850   Anisotropy =     5.2071

     90  H    Isotropic =    29.1453   Anisotropy =     7.7584

     91  C    Isotropic =   164.7744   Anisotropy =    31.5466

     92  H    Isotropic =    31.1519   Anisotropy =     4.9324

     93  H    Isotropic =    30.8864   Anisotropy =    11.9660

     94  H    Isotropic =    30.7165   Anisotropy =     6.6641

     95  N    Isotropic =   199.5910   Anisotropy =    35.1684

     96  N    Isotropic =   209.8130   Anisotropy =    62.1343

     97  N    Isotropic =   209.1283   Anisotropy =    54.3121

     98  N    Isotropic =   207.6328   Anisotropy =    63.9870

 The electronic state is 1-A.
 Alpha  occ. eigenvalues --  -77.21974 -77.21862 -14.41288 -14.41116 -14.40870
 Alpha  occ. eigenvalues --  -14.40674 -10.31402 -10.31364 -10.31117 -10.30574
 Alpha  occ. eigenvalues --  -10.29302 -10.29036 -10.28986 -10.28782 -10.28727
 Alpha  occ. eigenvalues --  -10.28686 -10.28605 -10.28520 -10.28473 -10.28385
 Alpha  occ. eigenvalues --  -10.28315 -10.28199 -10.28175 -10.27182 -10.27137
 Alpha  occ. eigenvalues --  -10.26946 -10.26893 -10.24820 -10.24728 -10.24687
 Alpha  occ. eigenvalues --  -10.24626 -10.24590 -10.24443 -10.24316 -10.24142
 Alpha  occ. eigenvalues --   -6.68076  -6.67959  -4.84377  -4.84249  -4.84244
 Alpha  occ. eigenvalues --   -4.84131  -4.83970  -4.83865  -3.30960  -2.07832
 Alpha  occ. eigenvalues --   -2.07146  -2.04470  -1.02573  -1.02278  -1.02243
 Alpha  occ. eigenvalues --   -1.01787  -0.93991  -0.88685  -0.88634  -0.87596
 Alpha  occ. eigenvalues --   -0.85866  -0.85400  -0.85170  -0.84958  -0.84781
 Alpha  occ. eigenvalues --   -0.84221  -0.83672  -0.83130  -0.79904  -0.79053
 Alpha  occ. eigenvalues --   -0.77392  -0.77165  -0.76482  -0.76259  -0.73144
 Alpha  occ. eigenvalues --   -0.72933  -0.72675  -0.72329  -0.70156  -0.67927
 Alpha  occ. eigenvalues --   -0.67371  -0.66330  -0.65842  -0.65334  -0.64965
 Alpha  occ. eigenvalues --   -0.63968  -0.62020  -0.59740  -0.59457  -0.59244
 Alpha  occ. eigenvalues --   -0.58851  -0.58749  -0.58417  -0.58230  -0.57760
 Alpha  occ. eigenvalues --   -0.57379  -0.56387  -0.55917  -0.55720  -0.54858
 Alpha  occ. eigenvalues --   -0.54029  -0.53919  -0.53582  -0.53263  -0.52912
 Alpha  occ. eigenvalues --   -0.52469  -0.52236  -0.52080  -0.51710  -0.51573
 Alpha  occ. eigenvalues --   -0.51181  -0.50749  -0.50459  -0.50105  -0.49955
 Alpha  occ. eigenvalues --   -0.49585  -0.49092  -0.48979  -0.48226  -0.47775
 Alpha  occ. eigenvalues --   -0.47749  -0.47522  -0.47332  -0.47083  -0.46929
 Alpha  occ. eigenvalues --   -0.46796  -0.46309  -0.46220  -0.45809  -0.45663
 Alpha  occ. eigenvalues --   -0.45556  -0.45242  -0.45029  -0.44904  -0.44744
 Alpha  occ. eigenvalues --   -0.44222  -0.43943  -0.43801  -0.43708  -0.43575
 Alpha  occ. eigenvalues --   -0.43372  -0.43261  -0.43096  -0.42972  -0.42781
 Alpha  occ. eigenvalues --   -0.42669  -0.42559  -0.42111  -0.41626  -0.40639
 Alpha  occ. eigenvalues --   -0.36742  -0.36068  -0.34764  -0.34245  -0.33321
 Alpha  occ. eigenvalues --   -0.31657  -0.31002  -0.30748  -0.30472  -0.30106
 Alpha virt. eigenvalues --   -0.15686  -0.13291  -0.09071  -0.08642  -0.07991
 Alpha virt. eigenvalues --   -0.07407  -0.06854  -0.06586  -0.06259  -0.05409
 Alpha virt. eigenvalues --   -0.05216  -0.04923  -0.04522  -0.04267  -0.04124

 Mulliken charges:
               1
     1  P    0.477213
     2  P    0.518351
     3  C   -0.598570
     4  C   -0.166405
     5  C   -0.161705
     6  C   -0.174549
     7  C   -0.169145
     8  H    0.206149
     9  H    0.202622
    10  H    0.135716
    11  H    0.127067
    12  H    0.131753
    13  H    0.117007
    14  H    0.134668
    15  H    0.138263
    16  H    0.139803
    17  H    0.138889
    18  Rh  -0.532057
    19  C   -0.048707
    20  C   -0.108087
    21  C   -0.015259
    22  C   -0.123008
    23  C   -0.342623
    24  H    0.177096
    25  H    0.221735
    26  C   -0.224747
    27  C   -0.361138
    28  H    0.203503
    29  C   -0.221475
    30  H    0.189094
    31  H    0.165742
    32  H    0.167092
    33  H    0.169808
    34  H    0.129113
    35  H    0.166128
    36  H    0.165968
    37  H    0.127126
    38  H    0.168592
    39  C   -0.397502
    40  H    0.177333
    41  H    0.168255
    42  C   -0.327129
    43  H    0.150304
    44  H    0.194335
    45  C   -0.296455
    46  H    0.196887
    47  H    0.138680
    48  C   -0.361314
    49  H    0.181689
    50  H    0.157389
    51  C   -0.377143
    52  H    0.139083
    53  H    0.122418
    54  H    0.132807
    55  C   -0.392538
    56  H    0.138886
    57  H    0.141660
    58  H    0.127085
    59  C   -0.372035
    60  H    0.136355
    61  H    0.141233
    62  H    0.120308
    63  C   -0.377743
    64  H    0.123590
    65  H    0.140783
    66  H    0.134068
    67  C   -0.197780
    68  H    0.120009
    69  H    0.166106
    70  C   -0.360144
    71  H    0.141402
    72  H    0.112143
    73  H    0.137386
    74  C   -0.246298
    75  H    0.145701
    76  H    0.165335
    77  C   -0.371402
    78  H    0.135686
    79  H    0.114109
    80  H    0.144030
    81  C   -0.259682
    82  H    0.144471
    83  H    0.166429
    84  C   -0.364142
    85  H    0.116383
    86  H    0.140362
    87  H    0.143863
    88  C   -0.233671
    89  H    0.127508
    90  H    0.153000
    91  C   -0.317142
    92  H    0.098927
    93  H    0.135244
    94  H    0.137762
    95  N   -0.140626
    96  N   -0.184005
    97  N   -0.197328
    98  N   -0.205951
 Sum of Mulliken charges =   1.00000

 Dipole moment (field-independent basis, Debye):
    X=             -0.5745    Y=              0.9547    Z=              0.3367  Tot=              1.1640
 Quadrupole moment (field-independent basis, Debye-Ang):
   XX=           -206.1100   YY=           -215.8762   ZZ=           -231.0667
   XY=             -0.8924   XZ=              1.1297   YZ=              0.7024

 Summary of Natural Population Analysis:

                                       Natural Population
                Natural  -----------------------------------------------
    Atom  No    Charge         Core      Valence    Rydberg      Total
 -----------------------------------------------------------------------
      P    1    1.06686      9.99677     3.88748    0.04888    13.93314
      P    2    1.07653      9.99674     3.87742    0.04931    13.92347
      C    3   -1.00461      1.99943     4.98556    0.01962     7.00461
      C    4   -0.20166      1.99937     4.18980    0.01249     6.20166
      C    5   -0.19738      1.99938     4.18456    0.01344     6.19738
      C    6   -0.20361      1.99937     4.19162    0.01262     6.20361
      C    7   -0.20502      1.99937     4.19303    0.01261     6.20502
      H    8    0.26562      0.00000     0.73174    0.00263     0.73438
      H    9    0.25087      0.00000     0.74675    0.00238     0.74913
      H   10    0.16752      0.00000     0.82907    0.00341     0.83248
      H   11    0.18500      0.00000     0.81296    0.00204     0.81500
      H   12    0.16580      0.00000     0.83041    0.00379     0.83420
      H   13    0.18802      0.00000     0.81013    0.00185     0.81198
      H   14    0.16587      0.00000     0.83066    0.00347     0.83413
      H   15    0.19105      0.00000     0.80677    0.00219     0.80895
      H   16    0.16775      0.00000     0.82879    0.00346     0.83225
      H   17    0.19011      0.00000     0.80757    0.00232     0.80989
     Rh   18   -0.44162     35.98610     9.43084    0.02467    45.44162
      C   19   -0.16586      1.99907     4.14688    0.01992     6.16586
      C   20   -0.17531      1.99907     4.15548    0.02076     6.17531
      C   21   -0.18746      1.99907     4.16820    0.02019     6.18746
      C   22   -0.15400      1.99907     4.13459    0.02034     6.15400
      C   23   -0.42455      1.99936     4.41312    0.01207     6.42455
      H   24    0.22000      0.00000     0.77812    0.00188     0.78000
      H   25    0.23515      0.00000     0.76256    0.00229     0.76485
      C   26   -0.41857      1.99935     4.40637    0.01284     6.41857
      C   27   -0.42289      1.99936     4.41154    0.01199     6.42289
      H   28    0.23194      0.00000     0.76585    0.00222     0.76806
      C   29   -0.41704      1.99935     4.40489    0.01280     6.41704
      H   30    0.21931      0.00000     0.77866    0.00203     0.78069
      H   31    0.22660      0.00000     0.77199    0.00141     0.77340
      H   32    0.21438      0.00000     0.78370    0.00192     0.78562
      H   33    0.23201      0.00000     0.76614    0.00185     0.76799
      H   34    0.21283      0.00000     0.78544    0.00173     0.78717
      H   35    0.21382      0.00000     0.78424    0.00194     0.78618
      H   36    0.22667      0.00000     0.77187    0.00146     0.77333
      H   37    0.21353      0.00000     0.78490    0.00158     0.78647
      H   38    0.23150      0.00000     0.76667    0.00183     0.76850
      C   39   -0.45718      1.99930     4.43922    0.01865     6.45718
      H   40    0.22453      0.00000     0.77299    0.00248     0.77547
      H   41    0.20814      0.00000     0.78791    0.00395     0.79186
      C   42   -0.47354      1.99931     4.45470    0.01953     6.47354
      H   43    0.20007      0.00000     0.79573    0.00420     0.79993
      H   44    0.22327      0.00000     0.77325    0.00348     0.77673
      C   45   -0.47987      1.99931     4.46079    0.01977     6.47987
      H   46    0.24326      0.00000     0.75287    0.00387     0.75674
      H   47    0.18903      0.00000     0.80658    0.00439     0.81097
      C   48   -0.46744      1.99930     4.45017    0.01796     6.46744
      H   49    0.23038      0.00000     0.76715    0.00248     0.76962
      H   50    0.20413      0.00000     0.79234    0.00352     0.79587
      C   51   -0.60275      1.99946     4.59661    0.00668     6.60275
      H   52    0.21919      0.00000     0.77974    0.00107     0.78081
      H   53    0.20549      0.00000     0.79283    0.00168     0.79451
      H   54    0.20225      0.00000     0.79638    0.00137     0.79775
      C   55   -0.60473      1.99946     4.59827    0.00700     6.60473
      H   56    0.20447      0.00000     0.79410    0.00143     0.79553
      H   57    0.22030      0.00000     0.77862    0.00108     0.77970
      H   58    0.20538      0.00000     0.79300    0.00162     0.79462
      C   59   -0.60069      1.99946     4.59456    0.00668     6.60069
      H   60    0.20503      0.00000     0.79355    0.00142     0.79497
      H   61    0.21897      0.00000     0.77992    0.00111     0.78103
      H   62    0.20268      0.00000     0.79561    0.00170     0.79732
      C   63   -0.60262      1.99946     4.59641    0.00675     6.60262
      H   64    0.20680      0.00000     0.79159    0.00161     0.79320
      H   65    0.22011      0.00000     0.77883    0.00107     0.77989
      H   66    0.20332      0.00000     0.79532    0.00136     0.79668
      C   67   -0.21081      1.99936     4.19692    0.01454     6.21081
      H   68    0.18414      0.00000     0.81336    0.00250     0.81586
      H   69    0.20347      0.00000     0.79473    0.00180     0.79653
      C   70   -0.62300      1.99946     4.61725    0.00628     6.62300
      H   71    0.21873      0.00000     0.78011    0.00116     0.78127
      H   72    0.19622      0.00000     0.80245    0.00133     0.80378
      H   73    0.20785      0.00000     0.79079    0.00135     0.79215
      C   74   -0.21144      1.99937     4.19860    0.01347     6.21144
      H   75    0.20074      0.00000     0.79681    0.00245     0.79926
      H   76    0.19600      0.00000     0.80192    0.00208     0.80400
      C   77   -0.62248      1.99946     4.61665    0.00638     6.62248
      H   78    0.21545      0.00000     0.78331    0.00125     0.78455
      H   79    0.19506      0.00000     0.80345    0.00149     0.80494
      H   80    0.20883      0.00000     0.78980    0.00137     0.79117
      C   81   -0.21275      1.99937     4.19993    0.01344     6.21275
      H   82    0.19646      0.00000     0.80111    0.00244     0.80354
      H   83    0.19798      0.00000     0.79993    0.00209     0.80202
      C   84   -0.62228      1.99945     4.61637    0.00645     6.62228
      H   85    0.19669      0.00000     0.80185    0.00146     0.80331
      H   86    0.21798      0.00000     0.78076    0.00126     0.78202
      H   87    0.20841      0.00000     0.79023    0.00136     0.79159
      C   88   -0.21507      1.99938     4.20186    0.01383     6.21507
      H   89    0.17868      0.00000     0.81801    0.00331     0.82132
      H   90    0.18821      0.00000     0.80867    0.00312     0.81179
      C   91   -0.59292      1.99946     4.58682    0.00665     6.59292
      H   92    0.19019      0.00000     0.80803    0.00178     0.80981
      H   93    0.21271      0.00000     0.78598    0.00130     0.78729
      H   94    0.21063      0.00000     0.78789    0.00148     0.78937
      N   95   -0.45246      1.99951     5.42502    0.02793     7.45246
      N   96   -0.45017      1.99953     5.42504    0.02559     7.45017
      N   97   -0.45189      1.99954     5.42525    0.02710     7.45189
      N   98   -0.44631      1.99954     5.42156    0.02522     7.44631
 =======================================================================
   * Total *    1.00000    121.95873   215.29583    0.74545   338.00000

 Normal termination of Gaussian 16 at Tue Jan 21 15:24:35 2025.
