 Gaussian 16, Revision B.01,
 Gaussian 16:  ES64L-G16RevB.01 20-Dec-2017

 ------------------------------------------
 # nmr=giao b3lyp/genecp pop=nbo scfcyc=200
 ------------------------------------------

 ---------
 MB-61_SPE
 ---------
 Symbolic Z-matrix:
 Charge =  1 Multiplicity = 1

                         Standard orientation:
 ---------------------------------------------------------------------
 Center     Atomic      Atomic             Coordinates (Angstroms)
 Number     Number       Type             X           Y           Z
 ---------------------------------------------------------------------
      1         15           0       -1.767910    0.837898    1.085180
      2         15           0        0.788770    0.150950    0.236320
      3          6           0       -0.026821    0.986270    1.736810
      4          1           0        0.329748    2.006040    1.855420
      5          1           0        0.098940    0.447670    2.668640
      6          6           0       -2.753042    2.423546    1.363980
      7          6           0       -3.793883    2.750985    0.303000
      8          1           0       -4.594793    3.355614    0.738990
      9          1           0       -4.251632    1.872705   -0.147560
     10          1           0       -3.336883    3.333126   -0.498590
     11          6           0       -2.025594    3.673187    1.827930
     12          1           0       -2.738904    4.356346    2.299490
     13          1           0       -1.585794    4.193718    0.975620
     14          1           0       -1.234103    3.484598    2.549340
     15          6           0       -3.058851    1.313836    2.377280
     16          6           0       -2.596941    1.476267    3.815670
     17          1           0       -3.285422    2.137806    4.350670
     18          1           0       -1.598082    1.895198    3.915390
     19          1           0       -2.607520    0.511487    4.325860
     20          6           0       -4.398510    0.597245    2.300920
     21          1           0       -4.716380    0.367984    1.286040
     22          1           0       -5.176341    1.216634    2.757900
     23          1           0       -4.354569   -0.340265    2.857630
     24          6           0        1.600259    1.663411   -0.494870
     25          6           0        2.616488    2.323953    0.243240
     26          6           0        3.151907    3.506533   -0.259520
     27          1           0        3.926046    4.005954    0.312720
     28          6           0        2.730866    4.068703   -1.462880
     29          6           0        1.737727    3.403562   -2.168640
     30          1           0        1.389576    3.820331   -3.106970
     31          6           0        1.165228    2.210191   -1.719360
     32          6           0        2.110692   -1.084348    0.686280
     33          6           0        3.192142   -1.295137   -0.204270
     34          6           0        4.181803   -2.214656    0.141190
     35          1           0        5.008093   -2.360645   -0.545620
     36          6           0        4.136484   -2.963776    1.311870
     37          6           0        3.014004   -2.815407    2.118250
     38          1           0        2.913334   -3.437407    3.000940
     39          6           0        1.991303   -1.913418    1.825720
     40         45           0       -1.278099   -0.739532   -0.607170
     41          6           0       -0.600567   -2.048401   -2.306850
     42          6           0       -0.479566   -2.749791   -1.116690
     43          6           0       -3.212267   -1.949764   -0.622330
     44          6           0       -3.237768   -1.034614   -1.655140
     45          1           0        0.298162   -1.571580   -2.680460
     46          6           0       -1.707717   -2.237062   -3.329760
     47          1           0        0.504854   -2.781670   -0.663330
     48          6           0       -1.439605   -3.783632   -0.580220
     49          6           0       -2.926936   -3.431064   -0.777790
     50          1           0       -3.687718   -1.662205    0.307450
     51          1           0       -3.758179   -0.098365   -1.478970
     52          6           0       -2.925428   -1.312954   -3.106010
     53          1           0       -2.020306   -3.281623   -3.339480
     54          1           0       -1.301857   -2.038582   -4.322870
     55          1           0       -1.220934   -4.757272   -1.036920
     56          1           0       -1.237585   -3.902842    0.486100
     57          1           0       -3.518455   -3.979474   -0.042840
     58          1           0       -3.273295   -3.768954   -1.754430
     59          1           0       -3.809308   -1.734855   -3.600120
     60          1           0       -2.740849   -0.354664   -3.595240
     61          6           0        3.206138    1.806773    1.536270
     62          1           0        3.901579    0.985414    1.352380
     63          1           0        3.759838    2.600984    2.035850
     64          1           0        2.461879    1.434312    2.238370
     65          6           0        3.347131   -0.613077   -1.545470
     66          1           0        2.401291   -0.515678   -2.078260
     67          1           0        3.770930    0.388074   -1.457750
     68          1           0        4.015192   -1.199776   -2.175460
     69          6           0        0.795443   -1.937590    2.751480
     70          1           0        0.881012   -1.204629    3.557920
     71          1           0       -0.144738   -1.764321    2.225800
     72          1           0        0.724904   -2.915350    3.227710
     73          6           0        5.245755   -3.911755    1.678530
     74          1           0        5.733025   -4.318734    0.791730
     75          1           0        6.012624   -3.397504    2.265190
     76          1           0        4.878346   -4.743665    2.280460
     77          6           0        0.144869    1.572930   -2.630280
     78          1           0        0.607740    0.804620   -3.256400
     79          1           0       -0.675141    1.094019   -2.087960
     80          1           0       -0.281802    2.319239   -3.300370
     81          6           0        3.346654    5.340903   -1.979960
     82          1           0        3.440784    6.086533   -1.188310
     83          1           0        4.351435    5.154214   -2.369030
     84          1           0        2.754444    5.772553   -2.786730
 ---------------------------------------------------------------------

 SCF Done:  E(RB3LYP) =  -2080.03921588     A.U. after   17 cycles

      1  P    Isotropic =   450.3637   Anisotropy =   430.0907

      2  P    Isotropic =   326.1011   Anisotropy =   113.6435

      3  C    Isotropic =   128.8007   Anisotropy =    69.1520

      4  H    Isotropic =    29.3348   Anisotropy =     7.3465

      5  H    Isotropic =    27.0698   Anisotropy =     4.1398

      6  C    Isotropic =   136.7342   Anisotropy =    23.8810

      7  C    Isotropic =   161.9860   Anisotropy =    32.6893

      8  H    Isotropic =    30.3805   Anisotropy =    12.1416

      9  H    Isotropic =    30.9592   Anisotropy =     6.4889

     10  H    Isotropic =    30.4808   Anisotropy =     8.3421

     11  C    Isotropic =   164.8516   Anisotropy =    29.7637

     12  H    Isotropic =    30.4838   Anisotropy =    12.1134

     13  H    Isotropic =    31.0393   Anisotropy =     8.6101

     14  H    Isotropic =    31.2307   Anisotropy =     6.2172

     15  C    Isotropic =   133.6484   Anisotropy =    24.8397

     16  C    Isotropic =   163.0189   Anisotropy =    32.5230

     17  H    Isotropic =    30.3415   Anisotropy =    12.2104

     18  H    Isotropic =    31.1028   Anisotropy =     6.6212

     19  H    Isotropic =    30.4746   Anisotropy =     9.4156

     20  C    Isotropic =   161.7082   Anisotropy =    32.7542

     21  H    Isotropic =    31.0214   Anisotropy =     6.1535

     22  H    Isotropic =    30.3175   Anisotropy =    12.1074

     23  H    Isotropic =    30.4127   Anisotropy =     8.5378

     24  C    Isotropic =    44.9270   Anisotropy =   141.1066

     25  C    Isotropic =    35.1664   Anisotropy =   191.3223

     26  C    Isotropic =    46.5434   Anisotropy =   140.0992

     27  H    Isotropic =    24.7126   Anisotropy =     9.4285

     28  C    Isotropic =    31.9858   Anisotropy =   206.9378

     29  C    Isotropic =    48.0399   Anisotropy =   134.4295

     30  H    Isotropic =    24.6070   Anisotropy =     9.6331

     31  C    Isotropic =    36.2745   Anisotropy =   194.6812

     32  C    Isotropic =    49.6040   Anisotropy =   129.2810

     33  C    Isotropic =    35.1260   Anisotropy =   193.7657

     34  C    Isotropic =    47.2423   Anisotropy =   136.8619

     35  H    Isotropic =    24.8848   Anisotropy =     9.5698

     36  C    Isotropic =    33.3037   Anisotropy =   206.9277

     37  C    Isotropic =    46.5245   Anisotropy =   138.2304

     38  H    Isotropic =    24.5746   Anisotropy =     9.6676

     39  C    Isotropic =    37.4918   Anisotropy =   187.3836

     40  Rh   Isotropic =  -352.0804   Anisotropy =   414.8847

     41  C    Isotropic =    84.5061   Anisotropy =   111.3807

     42  C    Isotropic =    71.8541   Anisotropy =   122.2038

     43  C    Isotropic =    79.1674   Anisotropy =   124.9775

     44  C    Isotropic =    79.9115   Anisotropy =   113.1101

     45  H    Isotropic =    27.3132   Anisotropy =     5.1378

     46  C    Isotropic =   153.9901   Anisotropy =    25.1243

     47  H    Isotropic =    27.4836   Anisotropy =     6.0103

     48  C    Isotropic =   146.7062   Anisotropy =    30.9949

     49  C    Isotropic =   153.5386   Anisotropy =    26.4235

     50  H    Isotropic =    26.7011   Anisotropy =     6.8150

     51  H    Isotropic =    26.6440   Anisotropy =     4.7424

     52  C    Isotropic =   147.2149   Anisotropy =    27.6376

     53  H    Isotropic =    29.9101   Anisotropy =     9.6828

     54  H    Isotropic =    29.8635   Anisotropy =    11.0400

     55  H    Isotropic =    29.3900   Anisotropy =    11.9609

     56  H    Isotropic =    29.1274   Anisotropy =     6.6950

     57  H    Isotropic =    29.8641   Anisotropy =    11.4247

     58  H    Isotropic =    29.9152   Anisotropy =     9.4603

     59  H    Isotropic =    29.2218   Anisotropy =    12.9335

     60  H    Isotropic =    29.0978   Anisotropy =     7.4685

     61  C    Isotropic =   159.4675   Anisotropy =    26.0207

     62  H    Isotropic =    30.3089   Anisotropy =     7.0433

     63  H    Isotropic =    29.9306   Anisotropy =    10.5267

     64  H    Isotropic =    30.3834   Anisotropy =     6.3920

     65  C    Isotropic =   158.5274   Anisotropy =    24.6950

     66  H    Isotropic =    30.7729   Anisotropy =     6.2592

     67  H    Isotropic =    30.5694   Anisotropy =     7.3302

     68  H    Isotropic =    30.0586   Anisotropy =     9.9854

     69  C    Isotropic =   157.1546   Anisotropy =    23.1317

     70  H    Isotropic =    28.9320   Anisotropy =     5.8875

     71  H    Isotropic =    28.4772   Anisotropy =     8.6255

     72  H    Isotropic =    29.1335   Anisotropy =     8.5709

     73  C    Isotropic =   162.2108   Anisotropy =    43.0593

     74  H    Isotropic =    29.6253   Anisotropy =     8.2566

     75  H    Isotropic =    29.3471   Anisotropy =     9.6357

     76  H    Isotropic =    29.6191   Anisotropy =     8.1363

     77  C    Isotropic =   154.7495   Anisotropy =    33.7887

     78  H    Isotropic =    29.0260   Anisotropy =     5.0052

     79  H    Isotropic =    26.2045   Anisotropy =    12.5957

     80  H    Isotropic =    29.0132   Anisotropy =     7.9266

     81  C    Isotropic =   162.2585   Anisotropy =    42.8589

     82  H    Isotropic =    29.4633   Anisotropy =     8.6115

     83  H    Isotropic =    29.2890   Anisotropy =     9.4953

     84  H    Isotropic =    29.7644   Anisotropy =     7.7862

 The electronic state is 1-A.
 Alpha  occ. eigenvalues --  -77.23900 -77.21381 -10.31355 -10.31201 -10.29920
 Alpha  occ. eigenvalues --  -10.29172 -10.29151 -10.29109 -10.29012 -10.28921
 Alpha  occ. eigenvalues --  -10.28879 -10.28768 -10.28732 -10.28725 -10.28644
 Alpha  occ. eigenvalues --  -10.27620 -10.27510 -10.27478 -10.27407 -10.27267
 Alpha  occ. eigenvalues --  -10.27219 -10.26960 -10.26903 -10.26768 -10.26763
 Alpha  occ. eigenvalues --  -10.26763 -10.26215 -10.26022 -10.25989 -10.25983
 Alpha  occ. eigenvalues --  -10.25943 -10.25934 -10.25905 -10.24897 -10.24829
 Alpha  occ. eigenvalues --   -6.69755  -6.67581  -4.86053  -4.85965  -4.85677
 Alpha  occ. eigenvalues --   -4.83962  -4.83565  -4.83551  -3.32052  -2.08954
 Alpha  occ. eigenvalues --   -2.08225  -2.05551  -0.96781  -0.96245  -0.96122
 Alpha  occ. eigenvalues --   -0.94455  -0.89353  -0.89099  -0.88472  -0.88302
 Alpha  occ. eigenvalues --   -0.87972  -0.87450  -0.86444  -0.85477  -0.81023
 Alpha  occ. eigenvalues --   -0.80342  -0.80284  -0.79944  -0.79170  -0.78315
 Alpha  occ. eigenvalues --   -0.77790  -0.77677  -0.77496  -0.77394  -0.76989
 Alpha  occ. eigenvalues --   -0.70778  -0.70532  -0.67630  -0.67519  -0.66783
 Alpha  occ. eigenvalues --   -0.65902  -0.65276  -0.64789  -0.62432  -0.61710
 Alpha  occ. eigenvalues --   -0.60198  -0.59245  -0.58968  -0.58103  -0.57972
 Alpha  occ. eigenvalues --   -0.56947  -0.56858  -0.56336  -0.55765  -0.55354
 Alpha  occ. eigenvalues --   -0.54696  -0.53605  -0.53254  -0.52954  -0.52685
 Alpha  occ. eigenvalues --   -0.52658  -0.52579  -0.52380  -0.52323  -0.51761
 Alpha  occ. eigenvalues --   -0.50583  -0.50314  -0.50117  -0.50100  -0.50051
 Alpha  occ. eigenvalues --   -0.49942  -0.49942  -0.49765  -0.49493  -0.49360
 Alpha  occ. eigenvalues --   -0.48916  -0.48487  -0.48341  -0.48250  -0.48087
 Alpha  occ. eigenvalues --   -0.48049  -0.47727  -0.47615  -0.47231  -0.46390
 Alpha  occ. eigenvalues --   -0.46276  -0.46226  -0.45851  -0.44642  -0.44217
 Alpha  occ. eigenvalues --   -0.44116  -0.43716  -0.43545  -0.43351  -0.43040
 Alpha  occ. eigenvalues --   -0.42769  -0.42400  -0.42102  -0.41515  -0.39643
 Alpha  occ. eigenvalues --   -0.37982  -0.37130  -0.36830  -0.35162  -0.34609
 Alpha  occ. eigenvalues --   -0.34144  -0.33987  -0.33647  -0.33315  -0.33224
 Alpha  occ. eigenvalues --   -0.30810
 Alpha virt. eigenvalues --   -0.16188  -0.15270  -0.12480  -0.11583  -0.10737
 Alpha virt. eigenvalues --   -0.10508  -0.09377  -0.08410  -0.07869  -0.07551
 Alpha virt. eigenvalues --   -0.07169  -0.06696  -0.05815  -0.05236  -0.04861

 Mulliken charges:
               1
     1  P    0.341631
     2  P    0.174231
     3  C   -0.565643
     4  H    0.231019
     5  H    0.232310
     6  C   -0.129119
     7  C   -0.313746
     8  H    0.156374
     9  H    0.109060
    10  H    0.145896
    11  C   -0.313678
    12  H    0.153385
    13  H    0.151382
    14  H    0.115827
    15  C   -0.116569
    16  C   -0.323159
    17  H    0.153302
    18  H    0.130588
    19  H    0.146074
    20  C   -0.323823
    21  H    0.126058
    22  H    0.154695
    23  H    0.145654
    24  C   -0.160667
    25  C    0.151965
    26  C   -0.202860
    27  H    0.112330
    28  C    0.181309
    29  C   -0.216645
    30  H    0.108132
    31  C    0.220712
    32  C   -0.049826
    33  C    0.105047
    34  C   -0.182497
    35  H    0.115328
    36  C    0.164529
    37  C   -0.204547
    38  H    0.114152
    39  C    0.197726
    40  Rh  -0.668926
    41  C   -0.025200
    42  C   -0.096086
    43  C   -0.030272
    44  C   -0.084329
    45  H    0.184949
    46  C   -0.358803
    47  H    0.238775
    48  C   -0.243033
    49  C   -0.348170
    50  H    0.194947
    51  H    0.184554
    52  C   -0.221149
    53  H    0.168013
    54  H    0.167658
    55  H    0.169072
    56  H    0.135088
    57  H    0.167578
    58  H    0.168091
    59  H    0.171816
    60  H    0.137519
    61  C   -0.444168
    62  H    0.173545
    63  H    0.151946
    64  H    0.150370
    65  C   -0.444331
    66  H    0.109248
    67  H    0.178040
    68  H    0.155000
    69  C   -0.576311
    70  H    0.167781
    71  H    0.181639
    72  H    0.158599
    73  C   -0.442041
    74  H    0.141357
    75  H    0.157504
    76  H    0.139546
    77  C   -0.514642
    78  H    0.161680
    79  H    0.201729
    80  H    0.152168
    81  C   -0.445660
    82  H    0.142788
    83  H    0.155666
    84  H    0.140515
 Sum of Mulliken charges =   1.00000

 Dipole moment (field-independent basis, Debye):
    X=             -1.5170    Y=              0.4939    Z=              1.1066  Tot=              1.9416
 Quadrupole moment (field-independent basis, Debye-Ang):
   XX=           -196.2119   YY=           -203.9127   ZZ=           -215.8916
   XY=             -1.2628   XZ=             -1.9432   YZ=              0.4644

 Summary of Natural Population Analysis:

                                       Natural Population
                Natural  -----------------------------------------------
    Atom  No    Charge         Core      Valence    Rydberg      Total
 -----------------------------------------------------------------------
      P    1    0.91367      9.99648     4.04749    0.04236    14.08633
      P    2    1.10235      9.99638     3.85002    0.05125    13.89765
      C    3   -0.97077      1.99942     4.95578    0.01557     6.97077
      H    4    0.25304      0.00000     0.74449    0.00246     0.74696
      H    5    0.25756      0.00000     0.74011    0.00233     0.74244
      C    6   -0.19279      1.99932     4.17564    0.01783     6.19279
      C    7   -0.59805      1.99935     4.59100    0.00769     6.59805
      H    8    0.22057      0.00000     0.77761    0.00181     0.77943
      H    9    0.20661      0.00000     0.79182    0.00157     0.79339
      H   10    0.22012      0.00000     0.77822    0.00166     0.77988
      C   11   -0.60512      1.99935     4.59778    0.00799     6.60512
      H   12    0.22459      0.00000     0.77362    0.00179     0.77541
      H   13    0.22143      0.00000     0.77694    0.00163     0.77857
      H   14    0.20864      0.00000     0.78979    0.00156     0.79136
      C   15   -0.19143      1.99931     4.17439    0.01773     6.19143
      C   16   -0.60495      1.99935     4.59755    0.00805     6.60495
      H   17    0.22531      0.00000     0.77291    0.00177     0.77469
      H   18    0.20965      0.00000     0.78873    0.00162     0.79035
      H   19    0.21869      0.00000     0.77969    0.00162     0.78131
      C   20   -0.60155      1.99935     4.59455    0.00765     6.60155
      H   21    0.20945      0.00000     0.78893    0.00163     0.79055
      H   22    0.22270      0.00000     0.77549    0.00181     0.77730
      H   23    0.21843      0.00000     0.77991    0.00166     0.78157
      C   24   -0.33458      1.99883     4.31239    0.02336     6.33458
      C   25    0.00622      1.99905     3.97641    0.01832     5.99378
      C   26   -0.20571      1.99901     4.19291    0.01380     6.20571
      H   27    0.20967      0.00000     0.78851    0.00182     0.79033
      C   28    0.02776      1.99911     3.95809    0.01505     5.97224
      C   29   -0.20681      1.99901     4.19496    0.01284     6.20681
      H   30    0.20801      0.00000     0.78967    0.00232     0.79199
      C   31    0.00497      1.99906     3.97940    0.01658     5.99503
      C   32   -0.33825      1.99881     4.31812    0.02132     6.33825
      C   33    0.00321      1.99905     3.98049    0.01725     5.99679
      C   34   -0.20281      1.99900     4.19017    0.01364     6.20281
      H   35    0.20989      0.00000     0.78833    0.00178     0.79011
      C   36    0.02362      1.99910     3.96302    0.01425     5.97638
      C   37   -0.20263      1.99901     4.19009    0.01353     6.20263
      H   38    0.20844      0.00000     0.78983    0.00174     0.79156
      C   39   -0.00179      1.99905     3.98653    0.01621     6.00179
     Rh   40   -0.42491     35.98381     9.41327    0.02783    45.42491
      C   41   -0.18477      1.99905     4.16634    0.01938     6.18477
      C   42   -0.14154      1.99907     4.12200    0.02048     6.14154
      C   43   -0.15231      1.99904     4.13321    0.02006     6.15231
      C   44   -0.16793      1.99905     4.14838    0.02051     6.16793
      H   45    0.22280      0.00000     0.77483    0.00236     0.77720
      C   46   -0.42217      1.99937     4.41090    0.01190     6.42217
      H   47    0.23560      0.00000     0.76224    0.00215     0.76440
      C   48   -0.41686      1.99935     4.40444    0.01306     6.41686
      C   49   -0.42503      1.99937     4.41373    0.01194     6.42503
      H   50    0.22571      0.00000     0.77209    0.00220     0.77429
      H   51    0.22399      0.00000     0.77372    0.00229     0.77601
      C   52   -0.41819      1.99936     4.40615    0.01269     6.41819
      H   53    0.21481      0.00000     0.78319    0.00200     0.78519
      H   54    0.22755      0.00000     0.77095    0.00150     0.77245
      H   55    0.23258      0.00000     0.76555    0.00188     0.76742
      H   56    0.21516      0.00000     0.78321    0.00163     0.78484
      H   57    0.22806      0.00000     0.77044    0.00150     0.77194
      H   58    0.21497      0.00000     0.78303    0.00200     0.78503
      H   59    0.23305      0.00000     0.76504    0.00191     0.76695
      H   60    0.21551      0.00000     0.78292    0.00157     0.78449
      C   61   -0.62269      1.99939     4.61502    0.00828     6.62269
      H   62    0.23039      0.00000     0.76736    0.00225     0.76961
      H   63    0.22423      0.00000     0.77443    0.00134     0.77577
      H   64    0.20654      0.00000     0.79086    0.00259     0.79346
      C   65   -0.61445      1.99938     4.60735    0.00772     6.61445
      H   66    0.20463      0.00000     0.79351    0.00187     0.79537
      H   67    0.22937      0.00000     0.76865    0.00198     0.77063
      H   68    0.22460      0.00000     0.77414    0.00126     0.77540
      C   69   -0.61639      1.99938     4.60973    0.00728     6.61639
      H   70    0.21338      0.00000     0.78493    0.00169     0.78662
      H   71    0.21569      0.00000     0.78268    0.00164     0.78431
      H   72    0.22765      0.00000     0.77110    0.00125     0.77235
      C   73   -0.61604      1.99941     4.60974    0.00689     6.61604
      H   74    0.22013      0.00000     0.77869    0.00118     0.77987
      H   75    0.22719      0.00000     0.77147    0.00134     0.77281
      H   76    0.21907      0.00000     0.77976    0.00117     0.78093
      C   77   -0.59483      1.99937     4.58767    0.00779     6.59483
      H   78    0.21551      0.00000     0.78268    0.00182     0.78449
      H   79    0.21992      0.00000     0.77722    0.00286     0.78008
      H   80    0.22252      0.00000     0.77617    0.00130     0.77748
      C   81   -0.61726      1.99941     4.61065    0.00720     6.61726
      H   82    0.22245      0.00000     0.77637    0.00118     0.77755
      H   83    0.22717      0.00000     0.77153    0.00130     0.77283
      H   84    0.21777      0.00000     0.78111    0.00112     0.78223
 =======================================================================
   * Total *    1.00000    121.95019   197.38981    0.65999   320.00000

 Normal termination of Gaussian 16 at Tue Jan 21 14:34:37 2025.
