 Gaussian 16, Revision B.01,
 Gaussian 16:  ES64L-G16RevB.01 20-Dec-2017

 ------------------------------------------
 # nmr=giao b3lyp/genecp pop=nbo scfcyc=200
 ------------------------------------------

 ---------
 MB-69_SPE
 ---------
 Symbolic Z-matrix:
 Charge =  1 Multiplicity = 1

                         Standard orientation:
 ---------------------------------------------------------------------
 Center     Atomic      Atomic             Coordinates (Angstroms)
 Number     Number       Type             X           Y           Z
 ---------------------------------------------------------------------
      1         15           0        1.488271    0.499390    0.589629
      2          6           0        2.930081    0.002159    1.625079
      3          6           0        2.789670   -1.038601    2.550369
      4          6           0        3.881989   -1.472342    3.291099
      5          6           0        5.130330   -0.884753    3.104979
      6          6           0        5.281201    0.136206    2.173889
      7          6           0        4.188531    0.579187    1.434359
      8          1           0        4.321092    1.380067    0.719129
      9          1           0        6.250211    0.594796    2.022109
     10          1           0        5.981110   -1.224334    3.681859
     11          1           0        3.759129   -2.270692    4.012179
     12          1           0        1.830869   -1.521590    2.696679
     13          6           0        1.859623    2.197270   -0.011931
     14          6           0        1.905833    2.447660   -1.385011
     15          6           0        2.176034    3.729709   -1.856111
     16          6           0        2.398235    4.767749   -0.958901
     17          6           0        2.351285    4.525709    0.412619
     18          6           0        2.083994    3.247609    0.886089
     19          1           0        2.062384    3.070459    1.954879
     20          1           0        2.526016    5.333069    1.112659
     21          1           0        2.609056    5.764799   -1.324671
     22          1           0        2.212394    3.915269   -2.922221
     23          1           0        1.722882    1.641050   -2.083921
     24          6           0        0.002491    0.680151    1.712279
     25         15           0       -1.267779    0.083603    0.465309
     26          1           0        0.079551   -0.045069    2.521919
     27          1           0       -0.155348    1.669662    2.140819
     28         45           0        0.402710   -0.999499   -0.862991
     29          6           0        2.044189   -1.601181   -2.310831
     30          6           0        2.151919   -2.369091   -1.167521
     31          6           0       -0.687162   -2.891958   -1.542021
     32          6           0       -0.850181   -1.918028   -2.503031
     33          6           0        1.453789   -2.060420   -3.631531
     34          1           0        2.676060   -0.720851   -2.365141
     35          1           0        2.878089   -2.052891   -0.426461
     36          6           0        1.645587   -3.776910   -0.973251
     37          6           0        0.276887   -4.060299   -1.625601
     38          1           0       -1.477752   -2.995187   -0.807591
     39          6           0       -0.054881   -1.761939   -3.775451
     40          1           0       -1.772600   -1.347647   -2.477611
     41          1           0        1.982979   -1.556870   -4.442181
     42          1           0        1.644608   -3.124760   -3.767951
     43          1           0        2.390407   -4.491201   -1.346181
     44          1           0        1.574027   -3.956860    0.101609
     45          1           0        0.404757   -4.353929   -2.667181
     46          1           0       -0.175094   -4.918818   -1.125891
     47          1           0       -0.183980   -0.734028   -4.122051
     48          1           0       -0.484591   -2.395878   -4.561101
     49          6           0       -2.509100   -0.961586    1.421369
     50          6           0       -2.951040   -0.422276    2.794049
     51          6           0       -3.729390   -1.353085    0.566619
     52          1           0       -1.924971   -1.873397    1.599109
     53          6           0       -3.821181   -1.458155    3.523069
     54          1           0       -3.523709    0.498675    2.667229
     55          1           0       -2.085339   -0.172097    3.411609
     56          6           0       -4.603281   -2.381014    1.300019
     57          1           0       -4.328910   -0.462275    0.357859
     58          1           0       -3.416551   -1.753535   -0.401161
     59          6           0       -5.030221   -1.876614    2.681419
     60          1           0       -4.148250   -1.046655    4.480869
     61          1           0       -3.214221   -2.340686    3.754939
     62          1           0       -5.480212   -2.613564    0.691289
     63          1           0       -4.043302   -3.316615    1.409759
     64          1           0       -5.602182   -2.647723    3.202249
     65          1           0       -5.702820   -1.019703    2.562179
     66          6           0       -2.010778    1.677183   -0.208881
     67          6           0       -2.714748    1.492814   -1.565791
     68          6           0       -2.893757    2.469414    0.770219
     69          1           0       -1.105557    2.267962   -0.395741
     70          6           0       -3.128927    2.848594   -2.156461
     71          1           0       -3.604258    0.867395   -1.444071
     72          1           0       -2.052408    0.973883   -2.261881
     73          6           0       -3.290676    3.826434    0.169759
     74          1           0       -3.802987    1.901385    0.984759
     75          1           0       -2.382707    2.621344    1.724239
     76          6           0       -3.988676    3.659255   -1.182721
     77          1           0       -3.664867    2.688155   -3.095091
     78          1           0       -2.227286    3.419213   -2.406041
     79          1           0       -3.939055    4.357685    0.870669
     80          1           0       -2.393545    4.443094    0.045839
     81          1           0       -4.220125    4.637285   -1.610561
     82          1           0       -4.948346    3.151056   -1.034681
 ---------------------------------------------------------------------

 SCF Done:  E(RB3LYP) =  -2078.87143924     A.U. after   16 cycles

      1  P    Isotropic =   312.4070   Anisotropy =   102.0842

      2  C    Isotropic =    43.3751   Anisotropy =   169.0930

      3  C    Isotropic =    49.8751   Anisotropy =   186.0707

      4  C    Isotropic =    48.8861   Anisotropy =   189.4521

      5  C    Isotropic =    46.4069   Anisotropy =   196.0182

      6  C    Isotropic =    48.6475   Anisotropy =   190.1179

      7  C    Isotropic =    47.0433   Anisotropy =   191.2527

      8  H    Isotropic =    25.1251   Anisotropy =    13.0191

      9  H    Isotropic =    24.3650   Anisotropy =     6.5601

     10  H    Isotropic =    24.1029   Anisotropy =     3.7824

     11  H    Isotropic =    24.0157   Anisotropy =     6.7112

     12  H    Isotropic =    24.0373   Anisotropy =    10.7722

     13  C    Isotropic =    45.9759   Anisotropy =   175.5080

     14  C    Isotropic =    41.0022   Anisotropy =   181.1567

     15  C    Isotropic =    49.1661   Anisotropy =   188.8562

     16  C    Isotropic =    44.3596   Anisotropy =   199.7494

     17  C    Isotropic =    47.5917   Anisotropy =   192.2437

     18  C    Isotropic =    46.1136   Anisotropy =   190.2232

     19  H    Isotropic =    24.3383   Anisotropy =    11.0483

     20  H    Isotropic =    24.0280   Anisotropy =     5.5624

     21  H    Isotropic =    23.8740   Anisotropy =     3.6075

     22  H    Isotropic =    24.0173   Anisotropy =     6.5291

     23  H    Isotropic =    23.5570   Anisotropy =     9.7940

     24  C    Isotropic =   138.2109   Anisotropy =    46.0001

     25  P    Isotropic =   306.6235   Anisotropy =    80.8937

     26  H    Isotropic =    28.3649   Anisotropy =     3.6200

     27  H    Isotropic =    28.8061   Anisotropy =     8.0525

     28  Rh   Isotropic =  -313.3045   Anisotropy =   348.7964

     29  C    Isotropic =    83.6652   Anisotropy =   114.5731

     30  C    Isotropic =    74.6574   Anisotropy =   120.5815

     31  C    Isotropic =    75.7823   Anisotropy =   125.6726

     32  C    Isotropic =    78.7942   Anisotropy =   114.2551

     33  C    Isotropic =   154.2475   Anisotropy =    24.8840

     34  H    Isotropic =    27.2290   Anisotropy =     7.0916

     35  H    Isotropic =    27.4221   Anisotropy =     4.9358

     36  C    Isotropic =   147.8228   Anisotropy =    29.5793

     37  C    Isotropic =   153.5365   Anisotropy =    25.6996

     38  H    Isotropic =    26.7054   Anisotropy =     6.3009

     39  C    Isotropic =   148.1516   Anisotropy =    29.8296

     40  H    Isotropic =    26.2264   Anisotropy =     3.4362

     41  H    Isotropic =    29.8259   Anisotropy =    11.8044

     42  H    Isotropic =    29.8345   Anisotropy =     9.6360

     43  H    Isotropic =    29.3311   Anisotropy =    12.4162

     44  H    Isotropic =    29.2504   Anisotropy =     7.3303

     45  H    Isotropic =    29.7713   Anisotropy =     9.3873

     46  H    Isotropic =    29.8325   Anisotropy =    11.1670

     47  H    Isotropic =    29.0733   Anisotropy =     7.7049

     48  H    Isotropic =    29.0692   Anisotropy =    12.5124

     49  C    Isotropic =   132.4149   Anisotropy =    33.5675

     50  C    Isotropic =   152.0156   Anisotropy =    15.1843

     51  C    Isotropic =   151.5117   Anisotropy =    12.2346

     52  H    Isotropic =    29.8195   Anisotropy =     5.7746

     53  C    Isotropic =   153.0876   Anisotropy =     8.4861

     54  H    Isotropic =    30.3784   Anisotropy =     6.4461

     55  H    Isotropic =    30.1412   Anisotropy =     5.7240

     56  C    Isotropic =   153.3504   Anisotropy =     8.3316

     57  H    Isotropic =    30.3615   Anisotropy =     6.5271

     58  H    Isotropic =    30.4824   Anisotropy =     7.2231

     59  C    Isotropic =   155.7320   Anisotropy =     1.8306

     60  H    Isotropic =    29.9744   Anisotropy =    10.7653

     61  H    Isotropic =    30.5918   Anisotropy =     8.2507

     62  H    Isotropic =    30.0017   Anisotropy =    10.1951

     63  H    Isotropic =    30.5967   Anisotropy =     7.4448

     64  H    Isotropic =    30.0856   Anisotropy =    11.7111

     65  H    Isotropic =    30.5487   Anisotropy =     8.6630

     66  C    Isotropic =   132.4326   Anisotropy =    32.9165

     67  C    Isotropic =   149.1144   Anisotropy =    16.3927

     68  C    Isotropic =   152.2691   Anisotropy =    14.7564

     69  H    Isotropic =    30.7496   Anisotropy =     9.0607

     70  C    Isotropic =   153.3917   Anisotropy =     8.2019

     71  H    Isotropic =    30.3904   Anisotropy =     5.0744

     72  H    Isotropic =    29.8815   Anisotropy =     8.2329

     73  C    Isotropic =   153.6598   Anisotropy =     7.4123

     74  H    Isotropic =    30.5132   Anisotropy =     7.8243

     75  H    Isotropic =    30.3385   Anisotropy =     3.3306

     76  C    Isotropic =   155.9119   Anisotropy =     2.3755

     77  H    Isotropic =    30.1092   Anisotropy =    10.1101

     78  H    Isotropic =    30.9187   Anisotropy =     6.9955

     79  H    Isotropic =    30.2122   Anisotropy =    10.8128

     80  H    Isotropic =    31.2602   Anisotropy =     7.1740

     81  H    Isotropic =    30.3079   Anisotropy =    11.5506

     82  H    Isotropic =    30.6859   Anisotropy =     9.1814

 The electronic state is 1-A.
 Alpha  occ. eigenvalues --  -77.23881 -77.22634 -10.30197 -10.29868 -10.29738
 Alpha  occ. eigenvalues --  -10.29556 -10.29291 -10.29126 -10.29000 -10.28881
 Alpha  occ. eigenvalues --  -10.28789 -10.28762 -10.28662 -10.28532 -10.28207
 Alpha  occ. eigenvalues --  -10.28107 -10.28024 -10.27985 -10.27675 -10.27542
 Alpha  occ. eigenvalues --  -10.27527 -10.27470 -10.27428 -10.27314 -10.27235
 Alpha  occ. eigenvalues --  -10.27234 -10.26879 -10.26860 -10.26740 -10.25631
 Alpha  occ. eigenvalues --  -10.25523 -10.25384 -10.25378 -10.24975 -10.24833
 Alpha  occ. eigenvalues --   -6.69862  -6.68661  -4.86141  -4.86091  -4.85759
 Alpha  occ. eigenvalues --   -4.84964  -4.84842  -4.84563  -3.31442  -2.08320
 Alpha  occ. eigenvalues --   -2.07659  -2.04915  -0.97101  -0.96312  -0.94445
 Alpha  occ. eigenvalues --   -0.94017  -0.92930  -0.89308  -0.89111  -0.87998
 Alpha  occ. eigenvalues --   -0.86482  -0.85728  -0.85450  -0.85099  -0.84226
 Alpha  occ. eigenvalues --   -0.83877  -0.83733  -0.83258  -0.80309  -0.77788
 Alpha  occ. eigenvalues --   -0.75376  -0.73183  -0.71588  -0.71206  -0.70950
 Alpha  occ. eigenvalues --   -0.70644  -0.70557  -0.70455  -0.70402  -0.67094
 Alpha  occ. eigenvalues --   -0.66040  -0.65855  -0.64937  -0.64804  -0.62758
 Alpha  occ. eigenvalues --   -0.62477  -0.61313  -0.60062  -0.58330  -0.57486
 Alpha  occ. eigenvalues --   -0.56935  -0.56565  -0.56442  -0.56195  -0.55846
 Alpha  occ. eigenvalues --   -0.55594  -0.54851  -0.54731  -0.54122  -0.53620
 Alpha  occ. eigenvalues --   -0.53539  -0.53468  -0.53137  -0.53050  -0.52748
 Alpha  occ. eigenvalues --   -0.52609  -0.52536  -0.52291  -0.51226  -0.50744
 Alpha  occ. eigenvalues --   -0.49287  -0.48596  -0.48209  -0.47963  -0.47907
 Alpha  occ. eigenvalues --   -0.47855  -0.47535  -0.47379  -0.47036  -0.46652
 Alpha  occ. eigenvalues --   -0.46140  -0.45949  -0.45645  -0.45526  -0.45221
 Alpha  occ. eigenvalues --   -0.44664  -0.44020  -0.43802  -0.43714  -0.43565
 Alpha  occ. eigenvalues --   -0.43418  -0.43078  -0.42453  -0.42071  -0.41576
 Alpha  occ. eigenvalues --   -0.40892  -0.40061  -0.39877  -0.39758  -0.38797
 Alpha  occ. eigenvalues --   -0.37884  -0.36703  -0.36552  -0.36235  -0.35900
 Alpha  occ. eigenvalues --   -0.35301  -0.34599  -0.34439  -0.33681  -0.30672
 Alpha virt. eigenvalues --   -0.16168  -0.14592  -0.13821  -0.12383  -0.11912
 Alpha virt. eigenvalues --   -0.11021  -0.09374  -0.08180  -0.07736  -0.07285
 Alpha virt. eigenvalues --   -0.06779  -0.05910  -0.05782  -0.05549  -0.04592

 Mulliken charges:
               1
     1  P    0.341420
     2  C   -0.158117
     3  C   -0.075335
     4  C   -0.097796
     5  C   -0.097322
     6  C   -0.098302
     7  C   -0.068917
     8  H    0.160083
     9  H    0.136219
    10  H    0.140658
    11  H    0.132412
    12  H    0.124565
    13  C   -0.275368
    14  C   -0.008302
    15  C   -0.117758
    16  C   -0.091245
    17  C   -0.090885
    18  C   -0.079487
    19  H    0.149301
    20  H    0.137934
    21  H    0.142617
    22  H    0.132794
    23  H    0.139014
    24  C   -0.598494
    25  P    0.436779
    26  H    0.206502
    27  H    0.206208
    28  Rh  -0.494466
    29  C   -0.016061
    30  C   -0.105393
    31  C   -0.031662
    32  C   -0.105957
    33  C   -0.347402
    34  H    0.176765
    35  H    0.221094
    36  C   -0.232840
    37  C   -0.346941
    38  H    0.183361
    39  C   -0.232125
    40  H    0.190928
    41  H    0.167949
    42  H    0.167428
    43  H    0.170506
    44  H    0.130407
    45  H    0.168419
    46  H    0.167594
    47  H    0.129786
    48  H    0.171949
    49  C   -0.212792
    50  C   -0.234963
    51  C   -0.301850
    52  H    0.159227
    53  C   -0.235635
    54  H    0.145742
    55  H    0.130724
    56  C   -0.249727
    57  H    0.140845
    58  H    0.148730
    59  C   -0.232231
    60  H    0.147723
    61  H    0.117916
    62  H    0.148264
    63  H    0.118989
    64  H    0.150045
    65  H    0.117359
    66  C   -0.145465
    67  C   -0.278864
    68  C   -0.250525
    69  H    0.154286
    70  C   -0.247066
    71  H    0.140873
    72  H    0.127682
    73  C   -0.252012
    74  H    0.121625
    75  H    0.138583
    76  C   -0.229634
    77  H    0.144533
    78  H    0.121348
    79  H    0.147208
    80  H    0.123474
    81  H    0.147126
    82  H    0.115943
 Sum of Mulliken charges =   1.00000

 Dipole moment (field-independent basis, Debye):
    X=              0.7839    Y=              0.1510    Z=              0.4699  Tot=              0.9263
 Quadrupole moment (field-independent basis, Debye-Ang):
   XX=           -199.2281   YY=           -203.3142   ZZ=           -214.8127
   XY=              3.2011   XZ=              1.5453   YZ=             -1.7098

 Summary of Natural Population Analysis:

                                       Natural Population
                Natural  -----------------------------------------------
    Atom  No    Charge         Core      Valence    Rydberg      Total
 -----------------------------------------------------------------------
      P    1    1.12779      9.99647     3.82490    0.05084    13.87221
      C    2   -0.34206      1.99900     4.31930    0.02376     6.34206
      C    3   -0.19850      1.99909     4.18403    0.01537     6.19850
      C    4   -0.19105      1.99920     4.17710    0.01475     6.19105
      C    5   -0.18015      1.99920     4.16624    0.01471     6.18015
      C    6   -0.18820      1.99920     4.17431    0.01469     6.18820
      C    7   -0.19434      1.99910     4.17999    0.01526     6.19434
      H    8    0.22321      0.00000     0.77505    0.00174     0.77679
      H    9    0.22341      0.00000     0.77538    0.00121     0.77659
      H   10    0.22362      0.00000     0.77521    0.00117     0.77638
      H   11    0.22175      0.00000     0.77702    0.00123     0.77825
      H   12    0.20753      0.00000     0.79039    0.00209     0.79247
      C   13   -0.35213      1.99900     4.32860    0.02453     6.35213
      C   14   -0.18445      1.99909     4.16973    0.01563     6.18445
      C   15   -0.19733      1.99920     4.18338    0.01475     6.19733
      C   16   -0.17462      1.99921     4.16081    0.01461     6.17462
      C   17   -0.19244      1.99920     4.17857    0.01467     6.19244
      C   18   -0.19221      1.99909     4.17696    0.01616     6.19221
      H   19    0.21699      0.00000     0.78091    0.00210     0.78301
      H   20    0.22428      0.00000     0.77449    0.00123     0.77572
      H   21    0.22400      0.00000     0.77483    0.00117     0.77600
      H   22    0.22256      0.00000     0.77622    0.00122     0.77744
      H   23    0.22183      0.00000     0.77621    0.00197     0.77817
      C   24   -0.98133      1.99942     4.96403    0.01788     6.98133
      P   25    1.11277      9.99681     3.84335    0.04707    13.88723
      H   26    0.25687      0.00000     0.74140    0.00173     0.74313
      H   27    0.25196      0.00000     0.74584    0.00219     0.74804
     Rh   28   -0.39469     35.98588     9.37970    0.02911    45.39469
      C   29   -0.18497      1.99906     4.16655    0.01936     6.18497
      C   30   -0.15330      1.99908     4.13471    0.01952     6.15330
      C   31   -0.16288      1.99906     4.14417    0.01964     6.16288
      C   32   -0.17202      1.99907     4.15298    0.01997     6.17202
      C   33   -0.42229      1.99936     4.41120    0.01173     6.42229
      H   34    0.22376      0.00000     0.77431    0.00193     0.77624
      H   35    0.23087      0.00000     0.76716    0.00197     0.76913
      C   36   -0.41694      1.99935     4.40501    0.01258     6.41694
      C   37   -0.42462      1.99936     4.41330    0.01196     6.42462
      H   38    0.22115      0.00000     0.77666    0.00220     0.77885
      C   39   -0.41844      1.99935     4.40638    0.01271     6.41844
      H   40    0.22551      0.00000     0.77238    0.00211     0.77449
      H   41    0.22778      0.00000     0.77074    0.00148     0.77222
      H   42    0.21473      0.00000     0.78331    0.00197     0.78527
      H   43    0.23307      0.00000     0.76503    0.00190     0.76693
      H   44    0.21547      0.00000     0.78296    0.00158     0.78453
      H   45    0.21521      0.00000     0.78282    0.00197     0.78479
      H   46    0.22769      0.00000     0.77083    0.00148     0.77231
      H   47    0.21486      0.00000     0.78358    0.00156     0.78514
      H   48    0.23357      0.00000     0.76451    0.00192     0.76643
      C   49   -0.47017      1.99935     4.45393    0.01689     6.47017
      C   50   -0.39279      1.99937     4.38307    0.01034     6.39279
      C   51   -0.39187      1.99937     4.38239    0.01011     6.39187
      H   52    0.22043      0.00000     0.77684    0.00273     0.77957
      C   53   -0.38229      1.99942     4.37321    0.00966     6.38229
      H   54    0.20000      0.00000     0.79767    0.00233     0.80000
      H   55    0.20132      0.00000     0.79671    0.00197     0.79868
      C   56   -0.38297      1.99942     4.37382    0.00973     6.38297
      H   57    0.19645      0.00000     0.80106    0.00250     0.80355
      H   58    0.20400      0.00000     0.79395    0.00205     0.79600
      C   59   -0.38986      1.99942     4.38090    0.00953     6.38986
      H   60    0.21630      0.00000     0.78232    0.00138     0.78370
      H   61    0.19189      0.00000     0.80624    0.00187     0.80811
      H   62    0.21585      0.00000     0.78276    0.00139     0.78415
      H   63    0.19195      0.00000     0.80616    0.00188     0.80805
      H   64    0.21651      0.00000     0.78214    0.00134     0.78349
      H   65    0.19389      0.00000     0.80432    0.00180     0.80611
      C   66   -0.47323      1.99935     4.45515    0.01874     6.47323
      C   67   -0.38973      1.99937     4.37984    0.01052     6.38973
      C   68   -0.39429      1.99938     4.38344    0.01147     6.39429
      H   69    0.22712      0.00000     0.76906    0.00383     0.77288
      C   70   -0.38373      1.99942     4.37451    0.00981     6.38373
      H   71    0.19513      0.00000     0.80263    0.00223     0.80487
      H   72    0.20836      0.00000     0.78973    0.00191     0.79164
      C   73   -0.38309      1.99942     4.37387    0.00980     6.38309
      H   74    0.19403      0.00000     0.80356    0.00241     0.80597
      H   75    0.20246      0.00000     0.79531    0.00223     0.79754
      C   76   -0.38936      1.99942     4.38047    0.00948     6.38936
      H   77    0.21405      0.00000     0.78458    0.00137     0.78595
      H   78    0.19304      0.00000     0.80509    0.00187     0.80696
      H   79    0.21510      0.00000     0.78353    0.00136     0.78490
      H   80    0.19366      0.00000     0.80452    0.00183     0.80634
      H   81    0.21550      0.00000     0.78315    0.00135     0.78450
      H   82    0.19309      0.00000     0.80511    0.00181     0.80691
 =======================================================================
   * Total *    1.00000    121.95456   195.35354    0.69190   318.00000

 Normal termination of Gaussian 16 at Tue Jan 21 15:39:13 2025.
