 Gaussian 16, Revision B.01,
 Gaussian 16:  ES64L-G16RevB.01 20-Dec-2017

 ------------------------------------------
 # nmr=giao b3lyp/genecp pop=nbo scfcyc=200
 ------------------------------------------

 ---------
 MB-60_SPE
 ---------
 Symbolic Z-matrix:
 Charge =  1 Multiplicity = 1

                         Standard orientation:
 ---------------------------------------------------------------------
 Center     Atomic      Atomic             Coordinates (Angstroms)
 Number     Number       Type             X           Y           Z
 ---------------------------------------------------------------------
      1         15           0       -1.696890    1.361819    0.479920
      2         15           0        0.924661    0.243500    0.165100
      3          6           0        0.094760    1.766960    0.885260
      4          1           0        0.447230    2.677860    0.406420
      5          1           0        0.245230    1.878130    1.954300
      6          6           0       -2.249900    2.747699   -0.738730
      7          6           0       -1.287440    2.688369   -1.938110
      8          1           0       -1.629831    3.399109   -2.694460
      9          1           0       -1.268990    1.698269   -2.395570
     10          1           0       -0.264791    2.961790   -1.679650
     11          6           0       -3.670130    2.472888   -1.261170
     12          1           0       -4.426280    2.491798   -0.479910
     13          1           0       -3.734990    1.517808   -1.781500
     14          1           0       -3.930411    3.250268   -1.984130
     15          6           0       -2.195741    4.149699   -0.114110
     16          1           0       -2.338372    4.892219   -0.903910
     17          1           0       -1.237501    4.365619    0.361610
     18          1           0       -2.986781    4.305468    0.617960
     19          6           0       -2.598360    1.455959    2.185490
     20          6           0       -4.122940    1.412748    1.990500
     21          1           0       -4.443139    0.606128    1.329320
     22          1           0       -4.513780    2.351138    1.599540
     23          1           0       -4.597790    1.246107    2.960750
     24          6           0       -2.232410    2.705079    3.003900
     25          1           0       -2.737320    2.643988    3.971890
     26          1           0       -2.550881    3.630609    2.530820
     27          1           0       -1.164080    2.779259    3.210530
     28          6           0       -2.161239    0.207819    2.975300
     29          1           0       -1.086369    0.181949    3.157000
     30          1           0       -2.433939   -0.716251    2.467420
     31          1           0       -2.654299    0.218468    3.950960
     32          6           0        1.959771    0.896041   -1.226670
     33          6           0        3.063630    1.765681   -1.061280
     34          6           0        3.723090    2.192912   -2.216640
     35          1           0        4.569190    2.859402   -2.125840
     36          6           0        3.327830    1.789732   -3.487830
     37          1           0        3.870260    2.145142   -4.355140
     38          6           0        2.243001    0.939101   -3.639760
     39          1           0        1.922311    0.621501   -4.623780
     40          6           0        1.568341    0.499151   -2.508620
     41          1           0        0.715161   -0.158590   -2.617140
     42          6           0        4.551779    3.366412    0.333930
     43          1           0        5.497439    3.102773   -0.142000
     44          1           0        4.775999    3.631642    1.368010
     45          1           0        4.160029    4.257762   -0.160380
     46          6           0        2.051041   -0.488069    1.453770
     47          6           0        2.990542   -1.493309    1.122060
     48          6           0        3.755962   -2.038658    2.156140
     49          1           0        4.483462   -2.804008    1.924680
     50          6           0        3.612902   -1.633668    3.477140
     51          1           0        4.225122   -2.083228    4.248730
     52          6           0        2.683501   -0.655899    3.797480
     53          1           0        2.555441   -0.327649    4.821080
     54          6           0        1.912301   -0.094639    2.788460
     55          1           0        1.200301    0.667740    3.067610
     56          6           0        3.859463   -3.331768   -0.484200
     57          1           0        4.890523   -3.355068   -0.129410
     58          1           0        3.881343   -3.592698   -1.543290
     59          1           0        3.303203   -4.110538    0.041540
     60         45           0       -1.145669   -0.847531   -0.355600
     61          6           0       -0.440368   -2.708210   -1.448970
     62          6           0       -0.441047   -2.946610   -0.086730
     63          6           0       -3.152068   -1.924592   -0.148520
     64          6           0       -3.037628   -1.427622   -1.429750
     65          1           0        0.502842   -2.414400   -1.894410
     66          6           0       -1.485737   -3.202361   -2.431190
     67          1           0        0.502262   -2.844350    0.438230
     68          6           0       -1.499727   -3.681141    0.697880
     69          6           0       -2.946087   -3.370362    0.261370
     70          1           0       -3.699248   -1.316982    0.561510
     71          1           0       -3.526149   -0.482202   -1.632950
     72          6           0       -2.627958   -2.192452   -2.663060
     73          1           0       -1.884857   -4.159061   -2.094600
     74          1           0       -0.999037   -3.402121   -3.387210
     75          1           0       -1.316547   -4.761481    0.639950
     76          1           0       -1.376217   -3.414881    1.749640
     77          1           0       -3.616627   -3.595162    1.092430
     78          1           0       -3.249097   -4.028082   -0.553100
     79          1           0       -3.501458   -2.704772   -3.085470
     80          1           0       -2.316878   -1.466251   -3.417390
     81          6           0        3.550610    2.210842    0.306550
     82          1           0        3.994650    1.349082    0.813330
     83          1           0        2.690120    2.485781    0.921080
     84          6           0        3.216662   -1.954768   -0.306450
     85          1           0        3.830392   -1.209418   -0.822050
     86          1           0        2.263252   -1.948289   -0.837050
 ---------------------------------------------------------------------

 SCF Done:  E(RB3LYP) =  -2081.26670215     A.U. after   16 cycles

      1  P    Isotropic =   285.0291   Anisotropy =   145.9487

      2  P    Isotropic =   324.7080   Anisotropy =   107.0084

      3  C    Isotropic =   141.8458   Anisotropy =    49.0209

      4  H    Isotropic =    28.9260   Anisotropy =     6.1669

      5  H    Isotropic =    27.6973   Anisotropy =     4.6448

      6  C    Isotropic =   135.1552   Anisotropy =    33.1003

      7  C    Isotropic =   150.7611   Anisotropy =    41.1427

      8  H    Isotropic =    31.2041   Anisotropy =     8.9298

      9  H    Isotropic =    30.3826   Anisotropy =     7.0753

     10  H    Isotropic =    31.5277   Anisotropy =     9.1255

     11  C    Isotropic =   155.6428   Anisotropy =    39.5903

     12  H    Isotropic =    30.3797   Anisotropy =     7.2343

     13  H    Isotropic =    30.6706   Anisotropy =     6.3952

     14  H    Isotropic =    30.7965   Anisotropy =    10.7183

     15  C    Isotropic =   157.6447   Anisotropy =    35.0337

     16  H    Isotropic =    30.9886   Anisotropy =    10.8717

     17  H    Isotropic =    30.9306   Anisotropy =     6.2092

     18  H    Isotropic =    30.6139   Anisotropy =     8.7302

     19  C    Isotropic =   134.9029   Anisotropy =    33.7690

     20  C    Isotropic =   155.0397   Anisotropy =    35.2350

     21  H    Isotropic =    30.8243   Anisotropy =     5.2931

     22  H    Isotropic =    30.4514   Anisotropy =     8.0695

     23  H    Isotropic =    30.6511   Anisotropy =    10.6181

     24  C    Isotropic =   157.3296   Anisotropy =    38.8033

     25  H    Isotropic =    30.6874   Anisotropy =    11.0622

     26  H    Isotropic =    30.3828   Anisotropy =     7.7024

     27  H    Isotropic =    30.4545   Anisotropy =     6.3556

     28  C    Isotropic =   151.1350   Anisotropy =    41.5196

     29  H    Isotropic =    30.1951   Anisotropy =     7.3745

     30  H    Isotropic =    29.7558   Anisotropy =     7.7586

     31  H    Isotropic =    30.7893   Anisotropy =     9.9414

     32  C    Isotropic =    45.4246   Anisotropy =   158.4216

     33  C    Isotropic =    29.4795   Anisotropy =   198.9467

     34  C    Isotropic =    50.9045   Anisotropy =   185.5040

     35  H    Isotropic =    24.3036   Anisotropy =     9.3614

     36  C    Isotropic =    44.9648   Anisotropy =   195.6508

     37  H    Isotropic =    24.0323   Anisotropy =     3.8480

     38  C    Isotropic =    53.0893   Anisotropy =   181.7142

     39  H    Isotropic =    24.2816   Anisotropy =     6.6703

     40  C    Isotropic =    40.4775   Anisotropy =   173.3532

     41  H    Isotropic =    23.2016   Anisotropy =     8.9402

     42  C    Isotropic =   173.0536   Anisotropy =    17.5998

     43  H    Isotropic =    30.6164   Anisotropy =    10.6597

     44  H    Isotropic =    30.8085   Anisotropy =    10.3337

     45  H    Isotropic =    30.9562   Anisotropy =     9.5957

     46  C    Isotropic =    47.6334   Anisotropy =   154.7550

     47  C    Isotropic =    29.9184   Anisotropy =   203.4129

     48  C    Isotropic =    50.3192   Anisotropy =   187.1562

     49  H    Isotropic =    24.2548   Anisotropy =     9.8357

     50  C    Isotropic =    46.6902   Anisotropy =   193.0884

     51  H    Isotropic =    24.0817   Anisotropy =     3.6687

     52  C    Isotropic =    51.7657   Anisotropy =   184.4125

     53  H    Isotropic =    24.1664   Anisotropy =     6.4073

     54  C    Isotropic =    51.0354   Anisotropy =   181.7235

     55  H    Isotropic =    24.1496   Anisotropy =    10.7481

     56  C    Isotropic =   172.4373   Anisotropy =    18.7923

     57  H    Isotropic =    30.5105   Anisotropy =    11.3814

     58  H    Isotropic =    30.9266   Anisotropy =     9.6728

     59  H    Isotropic =    31.1549   Anisotropy =     8.0349

     60  Rh   Isotropic =  -351.1316   Anisotropy =   395.2029

     61  C    Isotropic =    84.7939   Anisotropy =   112.3241

     62  C    Isotropic =    76.1868   Anisotropy =   119.4589

     63  C    Isotropic =    79.3938   Anisotropy =   121.9627

     64  C    Isotropic =    77.7875   Anisotropy =   115.5684

     65  H    Isotropic =    26.9911   Anisotropy =     5.1308

     66  C    Isotropic =   154.5398   Anisotropy =    24.2352

     67  H    Isotropic =    27.2733   Anisotropy =     6.5100

     68  C    Isotropic =   147.8520   Anisotropy =    29.5632

     69  C    Isotropic =   153.8683   Anisotropy =    25.6133

     70  H    Isotropic =    26.8535   Anisotropy =     5.4608

     71  H    Isotropic =    26.1086   Anisotropy =     4.2341

     72  C    Isotropic =   147.2463   Anisotropy =    29.4504

     73  H    Isotropic =    29.8275   Anisotropy =     9.7161

     74  H    Isotropic =    29.7259   Anisotropy =    11.3381

     75  H    Isotropic =    29.3645   Anisotropy =    12.2983

     76  H    Isotropic =    29.4124   Anisotropy =     5.9218

     77  H    Isotropic =    29.9039   Anisotropy =    11.2903

     78  H    Isotropic =    29.8215   Anisotropy =     9.9012

     79  H    Isotropic =    29.0254   Anisotropy =    12.9239

     80  H    Isotropic =    28.8662   Anisotropy =     7.3393

     81  C    Isotropic =   153.6482   Anisotropy =     9.8129

     82  H    Isotropic =    30.2040   Anisotropy =    12.2953

     83  H    Isotropic =    29.8590   Anisotropy =    11.9058

     84  C    Isotropic =   152.0860   Anisotropy =     8.1134

     85  H    Isotropic =    30.3757   Anisotropy =     9.8320

     86  H    Isotropic =    30.4436   Anisotropy =    11.3461

 The electronic state is 1-A.
 Alpha  occ. eigenvalues --  -77.23821 -77.22691 -10.31305 -10.31141 -10.30214
 Alpha  occ. eigenvalues --  -10.29664 -10.29227 -10.29176 -10.29086 -10.29075
 Alpha  occ. eigenvalues --  -10.29064 -10.29053 -10.28759 -10.28191 -10.27884
 Alpha  occ. eigenvalues --  -10.27604 -10.27495 -10.27383 -10.27319 -10.27260
 Alpha  occ. eigenvalues --  -10.27168 -10.27106 -10.27007 -10.27005 -10.26917
 Alpha  occ. eigenvalues --  -10.26897 -10.26873 -10.26849 -10.26731 -10.26705
 Alpha  occ. eigenvalues --  -10.26692 -10.26580 -10.26501 -10.24929 -10.24742
 Alpha  occ. eigenvalues --   -6.69727  -6.68666  -4.86022  -4.85946  -4.85632
 Alpha  occ. eigenvalues --   -4.84967  -4.84845  -4.84569  -3.31478  -2.08320
 Alpha  occ. eigenvalues --   -2.07702  -2.04954  -0.96863  -0.96175  -0.94584
 Alpha  occ. eigenvalues --   -0.93595  -0.91693  -0.89264  -0.88946  -0.88724
 Alpha  occ. eigenvalues --   -0.88132  -0.88028  -0.84889  -0.84291  -0.82275
 Alpha  occ. eigenvalues --   -0.82081  -0.80483  -0.79967  -0.79752  -0.79175
 Alpha  occ. eigenvalues --   -0.79135  -0.77893  -0.75135  -0.73850  -0.73521
 Alpha  occ. eigenvalues --   -0.72216  -0.70655  -0.70082  -0.68178  -0.67706
 Alpha  occ. eigenvalues --   -0.66209  -0.66051  -0.65962  -0.62946  -0.62526
 Alpha  occ. eigenvalues --   -0.61369  -0.60366  -0.59832  -0.58396  -0.57627
 Alpha  occ. eigenvalues --   -0.57169  -0.56774  -0.56413  -0.56269  -0.55417
 Alpha  occ. eigenvalues --   -0.55279  -0.55145  -0.54932  -0.54644  -0.54054
 Alpha  occ. eigenvalues --   -0.53896  -0.53724  -0.53654  -0.53107  -0.52924
 Alpha  occ. eigenvalues --   -0.52710  -0.52663  -0.52419  -0.50869  -0.50595
 Alpha  occ. eigenvalues --   -0.50077  -0.49662  -0.49085  -0.48617  -0.48393
 Alpha  occ. eigenvalues --   -0.48168  -0.48043  -0.47822  -0.47532  -0.47195
 Alpha  occ. eigenvalues --   -0.47093  -0.46929  -0.46613  -0.46329  -0.46051
 Alpha  occ. eigenvalues --   -0.45807  -0.45502  -0.45348  -0.44699  -0.44532
 Alpha  occ. eigenvalues --   -0.44355  -0.44127  -0.43993  -0.43660  -0.43511
 Alpha  occ. eigenvalues --   -0.43461  -0.42966  -0.42915  -0.41935  -0.41921
 Alpha  occ. eigenvalues --   -0.40526  -0.40427  -0.37732  -0.36420  -0.35724
 Alpha  occ. eigenvalues --   -0.35386  -0.34942  -0.34734  -0.34640  -0.34209
 Alpha  occ. eigenvalues --   -0.33681  -0.30686
 Alpha virt. eigenvalues --   -0.16175  -0.14762  -0.13165  -0.11638  -0.11131
 Alpha virt. eigenvalues --   -0.10869  -0.09389  -0.08224  -0.07970  -0.07244
 Alpha virt. eigenvalues --   -0.07017  -0.06256  -0.05928  -0.05632  -0.04985

 Mulliken charges:
               1
     1  P    0.417181
     2  P    0.243151
     3  C   -0.670575
     4  H    0.222641
     5  H    0.201508
     6  C   -0.027842
     7  C   -0.412458
     8  H    0.157372
     9  H    0.146994
    10  H    0.152893
    11  C   -0.398447
    12  H    0.153187
    13  H    0.125685
    14  H    0.157061
    15  C   -0.385739
    16  H    0.151679
    17  H    0.138707
    18  H    0.140504
    19  C   -0.074852
    20  C   -0.424385
    21  H    0.149159
    22  H    0.149524
    23  H    0.155558
    24  C   -0.367988
    25  H    0.151260
    26  H    0.151137
    27  H    0.133704
    28  C   -0.360378
    29  H    0.117316
    30  H    0.137905
    31  H    0.156505
    32  C   -0.242116
    33  C    0.083751
    34  C   -0.113710
    35  H    0.137652
    36  C   -0.061078
    37  H    0.132893
    38  C   -0.146355
    39  H    0.120178
    40  C    0.005205
    41  H    0.175938
    42  C   -0.406043
    43  H    0.135239
    44  H    0.143859
    45  H    0.138492
    46  C   -0.063745
    47  C    0.020952
    48  C   -0.097512
    49  H    0.128185
    50  C   -0.076448
    51  H    0.133247
    52  C   -0.138633
    53  H    0.124205
    54  C   -0.036096
    55  H    0.102615
    56  C   -0.406435
    57  H    0.139678
    58  H    0.142551
    59  H    0.138378
    60  Rh  -0.482002
    61  C   -0.057359
    62  C   -0.070789
    63  C   -0.051507
    64  C   -0.090814
    65  H    0.207114
    66  C   -0.364214
    67  H    0.206531
    68  C   -0.240784
    69  C   -0.355753
    70  H    0.174096
    71  H    0.193271
    72  C   -0.219185
    73  H    0.170657
    74  H    0.167891
    75  H    0.170620
    76  H    0.137819
    77  H    0.167343
    78  H    0.169773
    79  H    0.172325
    80  H    0.129138
    81  C   -0.276226
    82  H    0.167056
    83  H    0.137994
    84  C   -0.230560
    85  H    0.179031
    86  H    0.085721
 Sum of Mulliken charges =   1.00000

 Dipole moment (field-independent basis, Debye):
    X=             -1.4436    Y=              0.8924    Z=              0.4873  Tot=              1.7657
 Quadrupole moment (field-independent basis, Debye-Ang):
   XX=           -203.0498   YY=           -213.4721   ZZ=           -216.5008
   XY=             -1.4268   XZ=             -0.6987   YZ=              2.1354

 Summary of Natural Population Analysis:

                                       Natural Population
                Natural  -----------------------------------------------
    Atom  No    Charge         Core      Valence    Rydberg      Total
 -----------------------------------------------------------------------
      P    1    1.07014      9.99685     3.88786    0.04516    13.92986
      P    2    1.08564      9.99662     3.86729    0.05045    13.91436
      C    3   -1.00694      1.99939     4.98939    0.01816     7.00694
      H    4    0.25799      0.00000     0.73961    0.00240     0.74201
      H    5    0.25158      0.00000     0.74602    0.00240     0.74842
      C    6   -0.25905      1.99941     4.24258    0.01706     6.25905
      C    7   -0.60101      1.99936     4.59222    0.00944     6.60101
      H    8    0.22311      0.00000     0.77504    0.00185     0.77689
      H    9    0.21874      0.00000     0.77968    0.00158     0.78126
      H   10    0.20870      0.00000     0.78953    0.00176     0.79130
      C   11   -0.59958      1.99935     4.59205    0.00819     6.59958
      H   12    0.21128      0.00000     0.78708    0.00164     0.78872
      H   13    0.20499      0.00000     0.79352    0.00148     0.79501
      H   14    0.22148      0.00000     0.77673    0.00179     0.77852
      C   15   -0.60568      1.99935     4.59746    0.00887     6.60568
      H   16    0.22281      0.00000     0.77543    0.00176     0.77719
      H   17    0.20630      0.00000     0.79210    0.00160     0.79370
      H   18    0.20783      0.00000     0.79048    0.00168     0.79217
      C   19   -0.25510      1.99941     4.23879    0.01690     6.25510
      C   20   -0.60263      1.99935     4.59498    0.00831     6.60263
      H   21    0.20695      0.00000     0.79150    0.00155     0.79305
      H   22    0.20933      0.00000     0.78897    0.00170     0.79067
      H   23    0.22234      0.00000     0.77584    0.00183     0.77766
      C   24   -0.60494      1.99935     4.59679    0.00880     6.60494
      H   25    0.22248      0.00000     0.77574    0.00178     0.77752
      H   26    0.21330      0.00000     0.78501    0.00168     0.78670
      H   27    0.20115      0.00000     0.79725    0.00160     0.79885
      C   28   -0.59696      1.99936     4.58901    0.00859     6.59696
      H   29    0.20527      0.00000     0.79299    0.00174     0.79473
      H   30    0.21852      0.00000     0.77976    0.00172     0.78148
      H   31    0.22063      0.00000     0.77749    0.00188     0.77937
      C   32   -0.33579      1.99891     4.31293    0.02395     6.33579
      C   33    0.00522      1.99902     3.97676    0.01901     5.99478
      C   34   -0.20513      1.99911     4.19152    0.01450     6.20513
      H   35    0.22170      0.00000     0.77663    0.00168     0.77830
      C   36   -0.16731      1.99920     4.15323    0.01488     6.16731
      H   37    0.22151      0.00000     0.77733    0.00116     0.77849
      C   38   -0.21054      1.99917     4.19622    0.01515     6.21054
      H   39    0.22029      0.00000     0.77842    0.00129     0.77971
      C   40   -0.18133      1.99909     4.16611    0.01612     6.18133
      H   41    0.21838      0.00000     0.77910    0.00253     0.78162
      C   42   -0.59328      1.99947     4.58598    0.00784     6.59328
      H   43    0.20649      0.00000     0.79215    0.00136     0.79351
      H   44    0.21855      0.00000     0.78041    0.00105     0.78145
      H   45    0.20512      0.00000     0.79347    0.00141     0.79488
      C   46   -0.32283      1.99890     4.30122    0.02271     6.32283
      C   47   -0.00199      1.99902     3.98470    0.01826     6.00199
      C   48   -0.19944      1.99911     4.18587    0.01445     6.19944
      H   49    0.22063      0.00000     0.77768    0.00169     0.77937
      C   50   -0.17379      1.99919     4.15973    0.01487     6.17379
      H   51    0.22221      0.00000     0.77662    0.00117     0.77779
      C   52   -0.20113      1.99918     4.18708    0.01488     6.20113
      H   53    0.22088      0.00000     0.77786    0.00126     0.77912
      C   54   -0.19568      1.99909     4.18129    0.01530     6.19568
      H   55    0.19688      0.00000     0.80051    0.00261     0.80312
      C   56   -0.59241      1.99946     4.58512    0.00782     6.59241
      H   57    0.20717      0.00000     0.79152    0.00131     0.79283
      H   58    0.21729      0.00000     0.78162    0.00108     0.78271
      H   59    0.20530      0.00000     0.79332    0.00138     0.79470
     Rh   60   -0.33062     35.98594     9.31635    0.02832    45.33062
      C   61   -0.19281      1.99908     4.17446    0.01927     6.19281
      C   62   -0.15840      1.99909     4.13997    0.01934     6.15840
      C   63   -0.17275      1.99908     4.15401    0.01967     6.17275
      C   64   -0.16743      1.99910     4.14839    0.01994     6.16743
      H   65    0.21998      0.00000     0.77770    0.00232     0.78002
      C   66   -0.42198      1.99935     4.41064    0.01199     6.42198
      H   67    0.22862      0.00000     0.76907    0.00231     0.77138
      C   68   -0.41600      1.99934     4.40409    0.01257     6.41600
      C   69   -0.42484      1.99935     4.41344    0.01204     6.42484
      H   70    0.21854      0.00000     0.77910    0.00236     0.78146
      H   71    0.22020      0.00000     0.77751    0.00229     0.77980
      C   72   -0.41588      1.99935     4.40392    0.01262     6.41588
      H   73    0.21571      0.00000     0.78229    0.00200     0.78429
      H   74    0.22750      0.00000     0.77099    0.00151     0.77250
      H   75    0.23301      0.00000     0.76509    0.00191     0.76699
      H   76    0.21811      0.00000     0.78014    0.00174     0.78189
      H   77    0.22793      0.00000     0.77056    0.00151     0.77207
      H   78    0.21648      0.00000     0.78154    0.00197     0.78352
      H   79    0.23362      0.00000     0.76449    0.00190     0.76638
      H   80    0.21566      0.00000     0.78262    0.00171     0.78434
      C   81   -0.41517      1.99937     4.40482    0.01097     6.41517
      H   82    0.22360      0.00000     0.77377    0.00263     0.77640
      H   83    0.19937      0.00000     0.79786    0.00277     0.80063
      C   84   -0.41298      1.99938     4.40317    0.01044     6.41298
      H   85    0.22425      0.00000     0.77329    0.00246     0.77575
      H   86    0.20065      0.00000     0.79672    0.00263     0.79935
 =======================================================================
   * Total *    1.00000    121.95417   199.35857    0.68726   322.00000

 Normal termination of Gaussian 16 at Tue Jan 21 14:30:28 2025.
