 Gaussian 16, Revision B.01,
 Gaussian 16:  ES64L-G16RevB.01 20-Dec-2017

 ------------------------------------------
 # nmr=giao b3lyp/genecp pop=nbo scfcyc=200
 ------------------------------------------

 ---------
 MB-64_SPE
 ---------
 Symbolic Z-matrix:
 Charge =  1 Multiplicity = 1

                         Standard orientation:
 ---------------------------------------------------------------------
 Center     Atomic      Atomic             Coordinates (Angstroms)
 Number     Number       Type             X           Y           Z
 ---------------------------------------------------------------------
      1         15           0       -1.026191    0.849668   -0.550950
      2         15           0        1.443540   -0.337409   -0.099620
      3          6           0        0.539859    0.494410   -1.503410
      4          1           0        0.370270   -0.285610   -2.248160
      5          1           0        1.021329    1.350400   -1.971670
      6          6           0       -0.978623    2.654698   -0.187390
      7          6           0       -1.090193    3.594898   -1.218560
      8          1           0       -1.245583    3.270968   -2.240550
      9          6           0       -1.016435    4.952678   -0.935470
     10          1           0       -1.107155    5.674428   -1.737510
     11          6           0       -0.829955    5.385529    0.375890
     12          1           0       -0.776486    6.444909    0.593090
     13          6           0       -0.717534    4.457369    1.404290
     14          1           0       -0.576384    4.790999    2.424730
     15          6           0       -0.792333    3.095169    1.124570
     16          1           0       -0.705222    2.370209    1.924560
     17          6           0       -2.482141    0.617507   -1.654540
     18          6           0       -2.464070   -0.305243   -2.703970
     19          1           0       -1.565669   -0.860792   -2.938170
     20          6           0       -3.606970   -0.522334   -3.466490
     21          1           0       -3.577979   -1.231194   -4.284460
     22          6           0       -4.780770    0.167215   -3.182110
     23          1           0       -5.668600   -0.003046   -3.777710
     24          6           0       -4.809711    1.077605   -2.130300
     25          1           0       -5.719842    1.618844   -1.904200
     26          6           0       -3.669351    1.301196   -1.367590
     27          1           0       -3.704202    2.022956   -0.561000
     28         45           0       -0.508940   -0.630521    1.213510
     29          6           0       -0.024768   -2.480411    2.461230
     30          6           0        0.409751   -1.359030    3.135630
     31          6           0       -2.268210   -0.308743    2.627070
     32          6           0       -2.592249   -1.300593    1.724110
     33          6           0       -1.291427   -3.257702    2.767380
     34          1           0        0.709022   -3.003780    1.858770
     35          1           0        1.460681   -1.102759    3.044320
     36          6           0       -0.309890   -0.638911    4.249360
     37          6           0       -1.839880   -0.533582    4.065490
     38          1           0       -2.606841    0.694737    2.393210
     39          6           0       -2.520348   -2.789713    1.957520
     40          1           0       -3.179389   -1.011194    0.858460
     41          1           0       -1.113316   -4.311202    2.545510
     42          1           0       -1.499347   -3.209452    3.836170
     43          1           0       -0.084889   -1.123641    5.207720
     44          1           0        0.111789    0.366249    4.320270
     45          1           0       -2.330969   -1.423323    4.459090
     46          1           0       -2.202570    0.299147    4.670410
     47          1           0       -2.511897   -3.277823    0.981230
     48          1           0       -3.439337   -3.128434    2.452230
     49          6           0        2.731509    0.878252    0.591000
     50          1           0        2.991929    0.488302    1.581080
     51          1           0        2.174158    1.799501    0.769280
     52          6           0        2.484141   -1.663679   -0.958540
     53          1           0        2.970612   -2.262978   -0.176750
     54          1           0        3.259801   -1.083788   -1.460030
     55          7           0        3.894249    1.111963   -0.237830
     56          7           0        1.751982   -2.453579   -1.924840
     57          6           0        4.174248    2.523893   -0.545470
     58          1           0        5.167618    2.551284   -0.997160
     59          1           0        4.230057    3.132113    0.369760
     60          6           0        5.090149    0.361454    0.183310
     61          1           0        5.800989    0.391694   -0.646000
     62          1           0        4.805130   -0.686546    0.300010
     63          6           0        3.183937    3.158622   -1.513380
     64          1           0        3.142448    2.598292   -2.449380
     65          1           0        2.177017    3.219031   -1.095590
     66          1           0        3.495296    4.179882   -1.741700
     67          6           0        5.782329    0.841434    1.464480
     68          1           0        6.629420    0.191045    1.691550
     69          1           0        6.166198    1.857115    1.361100
     70          1           0        5.113839    0.820564    2.328370
     71          6           0        2.517832   -2.684968   -3.164660
     72          1           0        3.339963   -3.397278   -2.985760
     73          1           0        2.977491   -1.735508   -3.445310
     74          6           0        1.133713   -3.673930   -1.369790
     75          1           0        1.621204   -4.556169   -1.801060
     76          1           0        1.341123   -3.714820   -0.297370
     77          6           0        1.669783   -3.178069   -4.330180
     78          1           0        2.294353   -3.270989   -5.220590
     79          1           0        1.232373   -4.158690   -4.138800
     80          1           0        0.861822   -2.478370   -4.552770
     81          6           0       -0.374897   -3.760831   -1.584280
     82          1           0       -0.630567   -3.744061   -2.643660
     83          1           0       -0.764406   -4.690091   -1.160330
     84          1           0       -0.881838   -2.925391   -1.097070
 ---------------------------------------------------------------------

 SCF Done:  E(RB3LYP) =  -2113.33454740     A.U. after   15 cycles

      1  P    Isotropic =   314.7769   Anisotropy =   107.7339

      2  P    Isotropic =   312.0370   Anisotropy =   120.1693

      3  C    Isotropic =   143.8172   Anisotropy =    51.1268

      4  H    Isotropic =    26.9896   Anisotropy =     6.4320

      5  H    Isotropic =    28.9805   Anisotropy =     9.5599

      6  C    Isotropic =    42.9001   Anisotropy =   176.1870

      7  C    Isotropic =    45.5824   Anisotropy =   190.4831

      8  H    Isotropic =    24.4383   Anisotropy =    11.3115

      9  C    Isotropic =    47.4304   Anisotropy =   192.1000

     10  H    Isotropic =    24.1489   Anisotropy =     5.7680

     11  C    Isotropic =    44.8470   Anisotropy =   198.7458

     12  H    Isotropic =    23.9311   Anisotropy =     3.6039

     13  C    Isotropic =    49.7793   Anisotropy =   187.1980

     14  H    Isotropic =    24.0353   Anisotropy =     6.6826

     15  C    Isotropic =    41.6127   Anisotropy =   178.7051

     16  H    Isotropic =    23.1703   Anisotropy =     9.5439

     17  C    Isotropic =    44.2626   Anisotropy =   170.4021

     18  C    Isotropic =    49.5424   Anisotropy =   188.9918

     19  H    Isotropic =    23.8408   Anisotropy =     9.6268

     20  C    Isotropic =    49.2381   Anisotropy =   189.2899

     21  H    Isotropic =    24.0291   Anisotropy =     7.0308

     22  C    Isotropic =    46.4307   Anisotropy =   195.4307

     23  H    Isotropic =    24.0866   Anisotropy =     3.7427

     24  C    Isotropic =    48.4057   Anisotropy =   190.5870

     25  H    Isotropic =    24.3247   Anisotropy =     6.4047

     26  C    Isotropic =    47.5376   Anisotropy =   189.7563

     27  H    Isotropic =    24.9906   Anisotropy =    12.0521

     28  Rh   Isotropic =  -310.5745   Anisotropy =   349.7880

     29  C    Isotropic =    78.9975   Anisotropy =   121.2430

     30  C    Isotropic =    77.6567   Anisotropy =   114.1280

     31  C    Isotropic =    80.7974   Anisotropy =   119.1165

     32  C    Isotropic =    73.8695   Anisotropy =   121.9709

     33  C    Isotropic =   153.6485   Anisotropy =    24.9993

     34  H    Isotropic =    26.9087   Anisotropy =     6.0499

     35  H    Isotropic =    26.4607   Anisotropy =     5.0589

     36  C    Isotropic =   147.2228   Anisotropy =    30.4392

     37  C    Isotropic =   154.0709   Anisotropy =    25.1298

     38  H    Isotropic =    26.9759   Anisotropy =     6.4881

     39  C    Isotropic =   148.6280   Anisotropy =    28.4648

     40  H    Isotropic =    27.1080   Anisotropy =     4.1652

     41  H    Isotropic =    29.9006   Anisotropy =    10.8559

     42  H    Isotropic =    29.8292   Anisotropy =     9.8225

     43  H    Isotropic =    29.0315   Anisotropy =    12.6911

     44  H    Isotropic =    29.0303   Anisotropy =     7.8173

     45  H    Isotropic =    29.8376   Anisotropy =     9.6556

     46  H    Isotropic =    29.8014   Anisotropy =    11.6914

     47  H    Isotropic =    29.3224   Anisotropy =     6.7148

     48  H    Isotropic =    29.3901   Anisotropy =    12.4104

     49  C    Isotropic =   129.7419   Anisotropy =    63.3083

     50  H    Isotropic =    28.7276   Anisotropy =     7.3068

     51  H    Isotropic =    29.2243   Anisotropy =     8.0520

     52  C    Isotropic =   122.2012   Anisotropy =    73.8330

     53  H    Isotropic =    29.0395   Anisotropy =     5.0533

     54  H    Isotropic =    28.5546   Anisotropy =     9.2864

     55  N    Isotropic =   205.2797   Anisotropy =    51.3600

     56  N    Isotropic =   201.7532   Anisotropy =    37.6449

     57  C    Isotropic =   133.2529   Anisotropy =    51.7618

     58  H    Isotropic =    29.7188   Anisotropy =     9.2362

     59  H    Isotropic =    29.6033   Anisotropy =     6.9903

     60  C    Isotropic =   128.0181   Anisotropy =    59.9246

     61  H    Isotropic =    29.1223   Anisotropy =     8.8176

     62  H    Isotropic =    29.7546   Anisotropy =     6.0443

     63  C    Isotropic =   166.8109   Anisotropy =    21.7325

     64  H    Isotropic =    31.3620   Anisotropy =     5.6082

     65  H    Isotropic =    32.2166   Anisotropy =    11.4367

     66  H    Isotropic =    31.1247   Anisotropy =    10.7779

     67  C    Isotropic =   178.3536   Anisotropy =    14.5239

     68  H    Isotropic =    31.3031   Anisotropy =    11.9843

     69  H    Isotropic =    30.8549   Anisotropy =     8.9669

     70  H    Isotropic =    30.9536   Anisotropy =     5.9286

     71  C    Isotropic =   123.6101   Anisotropy =    64.9453

     72  H    Isotropic =    28.9712   Anisotropy =     8.4914

     73  H    Isotropic =    29.4528   Anisotropy =     6.8623

     74  C    Isotropic =   127.5127   Anisotropy =    65.8322

     75  H    Isotropic =    28.9861   Anisotropy =     7.2215

     76  H    Isotropic =    29.4943   Anisotropy =     3.9093

     77  C    Isotropic =   166.9373   Anisotropy =    24.9082

     78  H    Isotropic =    30.5473   Anisotropy =    12.2645

     79  H    Isotropic =    30.5223   Anisotropy =     7.0649

     80  H    Isotropic =    30.5738   Anisotropy =     6.0673

     81  C    Isotropic =   163.8187   Anisotropy =    27.2143

     82  H    Isotropic =    30.4022   Anisotropy =     6.5102

     83  H    Isotropic =    30.6970   Anisotropy =     9.8894

     84  H    Isotropic =    29.7726   Anisotropy =     8.3017

 The electronic state is 1-A.
 Alpha  occ. eigenvalues --  -77.23580 -77.22196 -14.41312 -14.41187 -10.31547
 Alpha  occ. eigenvalues --  -10.31211 -10.29564 -10.29477 -10.29325 -10.29175
 Alpha  occ. eigenvalues --  -10.28965 -10.28918 -10.28897 -10.28792 -10.28777
 Alpha  occ. eigenvalues --  -10.28741 -10.28664 -10.28470 -10.28403 -10.28156
 Alpha  occ. eigenvalues --  -10.28033 -10.27827 -10.27752 -10.27713 -10.27586
 Alpha  occ. eigenvalues --  -10.27375 -10.27327 -10.27293 -10.27249 -10.27243
 Alpha  occ. eigenvalues --  -10.27237 -10.24966 -10.24770 -10.24660 -10.24570
 Alpha  occ. eigenvalues --   -6.69561  -6.68295  -4.85838  -4.85792  -4.85461
 Alpha  occ. eigenvalues --   -4.84575  -4.84477  -4.84199  -3.31324  -2.08214
 Alpha  occ. eigenvalues --   -2.07542  -2.04799  -1.02594  -1.02255  -0.96800
 Alpha  occ. eigenvalues --   -0.96044  -0.94363  -0.89199  -0.89083  -0.87929
 Alpha  occ. eigenvalues --   -0.86567  -0.85611  -0.85430  -0.85336  -0.85152
 Alpha  occ. eigenvalues --   -0.84860  -0.83953  -0.83230  -0.80260  -0.78788
 Alpha  occ. eigenvalues --   -0.77743  -0.76901  -0.74176  -0.72280  -0.72200
 Alpha  occ. eigenvalues --   -0.71298  -0.70905  -0.70500  -0.70246  -0.68537
 Alpha  occ. eigenvalues --   -0.66889  -0.66830  -0.65803  -0.64477  -0.62525
 Alpha  occ. eigenvalues --   -0.62354  -0.61033  -0.59996  -0.59199  -0.58992
 Alpha  occ. eigenvalues --   -0.57632  -0.57312  -0.56935  -0.56544  -0.56226
 Alpha  occ. eigenvalues --   -0.56143  -0.55588  -0.55490  -0.55060  -0.54883
 Alpha  occ. eigenvalues --   -0.54333  -0.53583  -0.53254  -0.52849  -0.52642
 Alpha  occ. eigenvalues --   -0.52542  -0.52453  -0.52271  -0.52011  -0.51145
 Alpha  occ. eigenvalues --   -0.50718  -0.49831  -0.49678  -0.48788  -0.48383
 Alpha  occ. eigenvalues --   -0.48073  -0.47833  -0.47663  -0.47590  -0.47453
 Alpha  occ. eigenvalues --   -0.46628  -0.46474  -0.46103  -0.45955  -0.45907
 Alpha  occ. eigenvalues --   -0.45268  -0.45175  -0.44965  -0.44852  -0.44557
 Alpha  occ. eigenvalues --   -0.44167  -0.43693  -0.43489  -0.43474  -0.43205
 Alpha  occ. eigenvalues --   -0.43101  -0.43023  -0.42560  -0.42047  -0.41077
 Alpha  occ. eigenvalues --   -0.37916  -0.36568  -0.36427  -0.36315  -0.35745
 Alpha  occ. eigenvalues --   -0.35359  -0.34714  -0.34296  -0.33697  -0.31674
 Alpha  occ. eigenvalues --   -0.30963  -0.30542
 Alpha virt. eigenvalues --   -0.16243  -0.14419  -0.13508  -0.12159  -0.11352
 Alpha virt. eigenvalues --   -0.10877  -0.09338  -0.08650  -0.07067  -0.06738
 Alpha virt. eigenvalues --   -0.06654  -0.05863  -0.05773  -0.04835  -0.04758

 Mulliken charges:
               1
     1  P    0.363464
     2  P    0.488815
     3  C   -0.538957
     4  H    0.213182
     5  H    0.208585
     6  C   -0.303873
     7  C   -0.055931
     8  H    0.149516
     9  C   -0.090329
    10  H    0.137223
    11  C   -0.091775
    12  H    0.140306
    13  C   -0.111701
    14  H    0.131197
    15  C   -0.046996
    16  H    0.176331
    17  C   -0.169809
    18  C   -0.060688
    19  H    0.143787
    20  C   -0.129286
    21  H    0.130588
    22  C   -0.089458
    23  H    0.139460
    24  C   -0.101324
    25  H    0.134842
    26  C   -0.050007
    27  H    0.153405
    28  Rh  -0.571282
    29  C   -0.021494
    30  C   -0.097957
    31  C   -0.039390
    32  C   -0.088290
    33  C   -0.354029
    34  H    0.174314
    35  H    0.171798
    36  C   -0.215375
    37  C   -0.353435
    38  H    0.186716
    39  C   -0.229443
    40  H    0.211174
    41  H    0.166136
    42  H    0.167659
    43  H    0.171553
    44  H    0.127844
    45  H    0.167290
    46  H    0.168291
    47  H    0.138374
    48  H    0.170898
    49  C   -0.398562
    50  H    0.164045
    51  H    0.200991
    52  C   -0.359095
    53  H    0.159080
    54  H    0.199142
    55  N   -0.153217
    56  N   -0.205094
    57  C   -0.190685
    58  H    0.140514
    59  H    0.131624
    60  C   -0.189718
    61  H    0.157525
    62  H    0.125897
    63  C   -0.374720
    64  H    0.123937
    65  H    0.128450
    66  H    0.143839
    67  C   -0.366874
    68  H    0.145797
    69  H    0.141728
    70  H    0.112539
    71  C   -0.152254
    72  H    0.126885
    73  H    0.122207
    74  C   -0.161545
    75  H    0.151702
    76  H    0.113610
    77  C   -0.376434
    78  H    0.143774
    79  H    0.134748
    80  H    0.117036
    81  C   -0.379721
    82  H    0.139071
    83  H    0.132347
    84  H    0.129519
 Sum of Mulliken charges =   1.00000

 Dipole moment (field-independent basis, Debye):
    X=              0.7979    Y=              0.4652    Z=              0.4693  Tot=              1.0360
 Quadrupole moment (field-independent basis, Debye-Ang):
   XX=           -200.9985   YY=           -204.1298   ZZ=           -211.8087
   XY=             -0.8916   XZ=              1.3688   YZ=              1.0754

 Summary of Natural Population Analysis:

                                       Natural Population
                Natural  -----------------------------------------------
    Atom  No    Charge         Core      Valence    Rydberg      Total
 -----------------------------------------------------------------------
      P    1    1.11959      9.99649     3.83350    0.05042    13.88041
      P    2    1.04909      9.99686     3.90693    0.04712    13.95091
      C    3   -0.99284      1.99942     4.97503    0.01839     6.99284
      H    4    0.27291      0.00000     0.72437    0.00272     0.72709
      H    5    0.26061      0.00000     0.73713    0.00225     0.73939
      C    6   -0.34603      1.99899     4.32260    0.02443     6.34603
      C    7   -0.18977      1.99909     4.17468    0.01600     6.18977
      H    8    0.22035      0.00000     0.77772    0.00193     0.77965
      C    9   -0.19148      1.99920     4.17770    0.01459     6.19148
      H   10    0.22390      0.00000     0.77487    0.00124     0.77610
      C   11   -0.17615      1.99921     4.16233    0.01462     6.17615
      H   12    0.22332      0.00000     0.77550    0.00117     0.77668
      C   13   -0.19891      1.99920     4.18499    0.01473     6.19891
      H   14    0.22127      0.00000     0.77750    0.00123     0.77873
      C   15   -0.19053      1.99909     4.17582    0.01562     6.19053
      H   16    0.22233      0.00000     0.77562    0.00205     0.77767
      C   17   -0.34042      1.99900     4.31793    0.02349     6.34042
      C   18   -0.19564      1.99909     4.18117    0.01537     6.19564
      H   19    0.21098      0.00000     0.78640    0.00263     0.78902
      C   20   -0.19020      1.99920     4.17630    0.01470     6.19020
      H   21    0.22106      0.00000     0.77770    0.00124     0.77894
      C   22   -0.18170      1.99920     4.16779    0.01471     6.18170
      H   23    0.22297      0.00000     0.77586    0.00117     0.77703
      C   24   -0.18954      1.99920     4.17562    0.01472     6.18954
      H   25    0.22282      0.00000     0.77596    0.00122     0.77718
      C   26   -0.19772      1.99909     4.18343    0.01519     6.19772
      H   27    0.21976      0.00000     0.77853    0.00170     0.78024
     Rh   28   -0.41536     35.98628     9.39878    0.03030    45.41536
      C   29   -0.17494      1.99907     4.15600    0.01986     6.17494
      C   30   -0.16154      1.99908     4.14249    0.01997     6.16154
      C   31   -0.18093      1.99907     4.16186    0.02000     6.18093
      C   32   -0.16051      1.99909     4.14146    0.01997     6.16051
      C   33   -0.42319      1.99936     4.41196    0.01187     6.42319
      H   34    0.22086      0.00000     0.77709    0.00205     0.77914
      H   35    0.22038      0.00000     0.77773    0.00190     0.77962
      C   36   -0.41750      1.99935     4.40541    0.01274     6.41750
      C   37   -0.42334      1.99936     4.41211    0.01187     6.42334
      H   38    0.22449      0.00000     0.77346    0.00205     0.77551
      C   39   -0.41857      1.99935     4.40652    0.01270     6.41857
      H   40    0.23178      0.00000     0.76611    0.00211     0.76822
      H   41    0.22763      0.00000     0.77086    0.00152     0.77237
      H   42    0.21502      0.00000     0.78300    0.00198     0.78498
      H   43    0.23337      0.00000     0.76471    0.00191     0.76663
      H   44    0.21411      0.00000     0.78428    0.00160     0.78589
      H   45    0.21537      0.00000     0.78266    0.00197     0.78463
      H   46    0.22774      0.00000     0.77077    0.00149     0.77226
      H   47    0.21803      0.00000     0.78013    0.00184     0.78197
      H   48    0.23319      0.00000     0.76492    0.00189     0.76681
      C   49   -0.46497      1.99930     4.44809    0.01758     6.46497
      H   50    0.20556      0.00000     0.79111    0.00333     0.79444
      H   51    0.22872      0.00000     0.76815    0.00313     0.77128
      C   52   -0.46641      1.99931     4.44865    0.01846     6.46641
      H   53    0.19549      0.00000     0.80082    0.00368     0.80451
      H   54    0.23903      0.00000     0.75708    0.00388     0.76097
      N   55   -0.45281      1.99953     5.42613    0.02715     7.45281
      N   56   -0.45175      1.99951     5.42600    0.02624     7.45175
      C   57   -0.20730      1.99937     4.19380    0.01414     6.20730
      H   58    0.20297      0.00000     0.79509    0.00194     0.79703
      H   59    0.16659      0.00000     0.82998    0.00343     0.83341
      C   60   -0.20552      1.99937     4.19163    0.01452     6.20552
      H   61    0.20095      0.00000     0.79713    0.00192     0.79905
      H   62    0.18245      0.00000     0.81494    0.00261     0.81755
      C   63   -0.60127      1.99946     4.59414    0.00767     6.60127
      H   64    0.20361      0.00000     0.79452    0.00187     0.79639
      H   65    0.19353      0.00000     0.80432    0.00215     0.80647
      H   66    0.22080      0.00000     0.77800    0.00120     0.77920
      C   67   -0.62115      1.99946     4.61554    0.00615     6.62115
      H   68    0.22084      0.00000     0.77801    0.00115     0.77916
      H   69    0.20827      0.00000     0.79041    0.00133     0.79173
      H   70    0.19582      0.00000     0.80285    0.00132     0.80418
      C   71   -0.19755      1.99938     4.18553    0.01264     6.19755
      H   72    0.16530      0.00000     0.83097    0.00373     0.83470
      H   73    0.19038      0.00000     0.80782    0.00180     0.80962
      C   74   -0.21201      1.99938     4.19895    0.01368     6.21201
      H   75    0.18788      0.00000     0.80903    0.00309     0.81212
      H   76    0.18080      0.00000     0.81638    0.00282     0.81920
      C   77   -0.60008      1.99946     4.59391    0.00671     6.60008
      H   78    0.22056      0.00000     0.77835    0.00109     0.77944
      H   79    0.20348      0.00000     0.79511    0.00141     0.79652
      H   80    0.20099      0.00000     0.79743    0.00157     0.79901
      C   81   -0.58970      1.99945     4.58344    0.00681     6.58970
      H   82    0.20696      0.00000     0.79153    0.00151     0.79304
      H   83    0.20911      0.00000     0.78949    0.00140     0.79089
      H   84    0.20431      0.00000     0.79413    0.00156     0.79569
 =======================================================================
   * Total *    1.00000    121.95533   199.30376    0.74091   322.00000

 Normal termination of Gaussian 16 at Tue Jan 21 14:54:10 2025.
