 Gaussian 16, Revision B.01,
 Gaussian 16:  ES64L-G16RevB.01 20-Dec-2017

 ------------------------------------------
 # nmr=giao b3lyp/genecp pop=nbo scfcyc=200
 ------------------------------------------

 ---------
 MB-63_SPE
 ---------
 Symbolic Z-matrix:
 Charge =  1 Multiplicity = 1

                         Standard orientation:
 ---------------------------------------------------------------------
 Center     Atomic      Atomic             Coordinates (Angstroms)
 Number     Number       Type             X           Y           Z
 ---------------------------------------------------------------------
      1         15           0        1.853460    0.544589   -1.324360
      2         15           0       -0.737050    0.007980   -0.275560
      3          6           0        0.075430    0.383780   -1.924670
      4          1           0       -0.328009    1.250810   -2.445730
      5          1           0       -0.021270   -0.481210   -2.578980
      6          6           0        2.865500   -0.553641   -2.546650
      7          6           0        4.372260   -0.353001   -2.317330
      8          1           0        4.655650   -0.455871   -1.268380
      9          1           0        4.716850    0.617759   -2.671320
     10          1           0        4.920660   -1.113241   -2.879450
     11          6           0        2.502550   -2.015901   -2.226860
     12          1           0        1.460160   -2.239260   -2.457770
     13          1           0        2.681860   -2.270121   -1.182740
     14          1           0        3.114310   -2.674501   -2.848760
     15          6           0        2.530300   -0.288651   -4.023740
     16          1           0        1.466750   -0.401280   -4.238640
     17          1           0        3.059190   -1.023301   -4.637320
     18          1           0        2.842400    0.696919   -4.358740
     19          6           0        2.291951    2.413369   -1.474710
     20          6           0        3.644271    2.688919   -0.795080
     21          1           0        3.618131    2.439719    0.265490
     22          1           0        3.861301    3.757599   -0.870450
     23          1           0        4.474151    2.156559   -1.254950
     24          6           0        1.212311    3.191270   -0.703020
     25          1           0        0.231351    3.134160   -1.173520
     26          1           0        1.498141    4.245870   -0.674610
     27          1           0        1.117801    2.845430    0.327280
     28          6           0        2.329521    2.913429   -2.925790
     29          1           0        1.428931    2.653830   -3.485000
     30          1           0        3.194441    2.537959   -3.470500
     31          1           0        2.403091    4.004389   -2.919150
     32          6           0       -1.916440   -1.377930   -0.544030
     33          6           0       -3.266490   -1.287799   -0.207340
     34          1           0       -3.668750   -0.366519    0.191330
     35          6           0       -4.127860   -2.368719   -0.377030
     36          1           0       -5.168130   -2.258609   -0.106770
     37          6           0       -3.641550   -3.572609   -0.890320
     38          6           0       -2.281431   -3.679680   -1.217000
     39          1           0       -1.914631   -4.622020   -1.602460
     40          6           0       -1.436800   -2.604030   -1.034940
     41          1           0       -0.386420   -2.724290   -1.269860
     42          6           0       -1.769079    1.465290    0.133380
     43          6           0       -1.681129    2.071580    1.393130
     44          1           0       -0.987349    1.686610    2.128640
     45          6           0       -2.456729    3.170720    1.710420
     46          1           0       -2.390339    3.641930    2.682280
     47          6           0       -3.345939    3.702731    0.768010
     48          6           0       -3.442369    3.110181   -0.496750
     49          1           0       -4.119079    3.499611   -1.243630
     50          6           0       -2.658399    2.003641   -0.799920
     51          1           0       -2.758859    1.557311   -1.782480
     52         45           0        1.290590   -0.357230    0.866080
     53          6           0        3.287780   -1.271531    1.580260
     54          6           0        3.172050    0.004409    2.080950
     55          6           0        0.514920   -0.822820    2.937990
     56          6           0        0.534010   -1.984320    2.185160
     57          6           0        3.031410   -2.550971    2.352350
     58          1           0        3.853810   -1.386661    0.663770
     59          1           0        3.679550    0.791999    1.536020
     60          6           0        2.704850    0.398279    3.459860
     61          6           0        1.528530   -0.441300    4.001690
     62          1           0       -0.436830   -0.307350    3.000650
     63          6           0        1.583980   -3.066680    2.219870
     64          1           0       -0.402420   -2.292660    1.732800
     65          1           0        3.710840   -3.321421    1.983720
     66          1           0        3.288460   -2.402861    3.400910
     67          1           0        3.547940    0.354459    4.160710
     68          1           0        2.406181    1.448199    3.421060
     69          1           0        1.898410   -1.339531    4.496360
     70          1           0        1.020670    0.136310    4.775780
     71          1           0        1.492479   -3.647390    1.299350
     72          1           0        1.362049   -3.766210    3.035770
     73          6           0       -5.777721   -4.654299   -0.788880
     74          1           0       -6.152571   -5.642029   -1.042370
     75          1           0       -5.940841   -4.465459    0.275280
     76          1           0       -6.302111   -3.902469   -1.384290
     77          6           0       -4.987048    5.378571    0.267960
     78          1           0       -5.772879    4.674241   -0.016530
     79          1           0       -5.426578    6.209101    0.813190
     80          1           0       -4.484338    5.756251   -0.626080
     81          8           0       -4.055919    4.777281    1.169010
     82          8           0       -4.384421   -4.679739   -1.101070
 ---------------------------------------------------------------------

 SCF Done:  E(RB3LYP) =  -2153.10082006     A.U. after   16 cycles

      1  P    Isotropic =   283.5193   Anisotropy =   138.6791

      2  P    Isotropic =   322.6141   Anisotropy =   111.6311

      3  C    Isotropic =   134.9716   Anisotropy =    60.8820

      4  H    Isotropic =    28.6267   Anisotropy =     6.7112

      5  H    Isotropic =    28.3876   Anisotropy =     3.5672

      6  C    Isotropic =   135.3409   Anisotropy =    33.1577

      7  C    Isotropic =   155.4540   Anisotropy =    34.9906

      8  H    Isotropic =    30.8138   Anisotropy =     5.1846

      9  H    Isotropic =    30.4752   Anisotropy =     7.7595

     10  H    Isotropic =    30.6855   Anisotropy =    10.5551

     11  C    Isotropic =   150.6231   Anisotropy =    43.5465

     12  H    Isotropic =    29.9987   Anisotropy =     6.9983

     13  H    Isotropic =    29.5082   Anisotropy =     7.7409

     14  H    Isotropic =    30.6621   Anisotropy =     9.8983

     15  C    Isotropic =   157.6014   Anisotropy =    39.0647

     16  H    Isotropic =    30.7287   Anisotropy =     6.0975

     17  H    Isotropic =    30.7917   Anisotropy =    10.9559

     18  H    Isotropic =    30.4710   Anisotropy =     7.8623

     19  C    Isotropic =   135.8109   Anisotropy =    32.9818

     20  C    Isotropic =   155.0706   Anisotropy =    40.0775

     21  H    Isotropic =    30.6811   Anisotropy =     6.3585

     22  H    Isotropic =    30.8776   Anisotropy =    10.4849

     23  H    Isotropic =    30.4223   Anisotropy =     7.0420

     24  C    Isotropic =   150.6247   Anisotropy =    41.1843

     25  H    Isotropic =    31.6243   Anisotropy =    10.4338

     26  H    Isotropic =    31.3289   Anisotropy =     8.4677

     27  H    Isotropic =    30.6655   Anisotropy =     7.0468

     28  C    Isotropic =   157.4248   Anisotropy =    34.1408

     29  H    Isotropic =    30.9209   Anisotropy =     6.4469

     30  H    Isotropic =    30.6477   Anisotropy =     8.5344

     31  H    Isotropic =    31.0260   Anisotropy =    10.6920

     32  C    Isotropic =    53.4368   Anisotropy =   151.3694

     33  C    Isotropic =    44.5657   Anisotropy =   188.3797

     34  H    Isotropic =    25.2292   Anisotropy =    13.4558

     35  C    Isotropic =    70.7330   Anisotropy =   157.6871

     36  H    Isotropic =    25.2851   Anisotropy =     9.0491

     37  C    Isotropic =    12.6373   Anisotropy =   149.3194

     38  C    Isotropic =    58.9664   Anisotropy =   152.6003

     39  H    Isotropic =    24.4507   Anisotropy =     7.8393

     40  C    Isotropic =    47.4731   Anisotropy =   179.9532

     41  H    Isotropic =    23.9141   Anisotropy =     9.2916

     42  C    Isotropic =    59.0232   Anisotropy =   157.5944

     43  C    Isotropic =    40.7716   Anisotropy =   180.3779

     44  H    Isotropic =    23.8767   Anisotropy =     9.8648

     45  C    Isotropic =    60.0288   Anisotropy =   151.2167

     46  H    Isotropic =    24.5234   Anisotropy =     7.2281

     47  C    Isotropic =    11.6892   Anisotropy =   151.6413

     48  C    Isotropic =    69.2011   Anisotropy =   160.9777

     49  H    Isotropic =    24.9020   Anisotropy =     8.0040

     50  C    Isotropic =    44.4794   Anisotropy =   187.8472

     51  H    Isotropic =    24.4333   Anisotropy =    11.2480

     52  Rh   Isotropic =  -337.4706   Anisotropy =   390.7566

     53  C    Isotropic =    75.8952   Anisotropy =   125.9490

     54  C    Isotropic =    75.0596   Anisotropy =   119.6445

     55  C    Isotropic =    86.5582   Anisotropy =   110.5699

     56  C    Isotropic =    75.5105   Anisotropy =   118.8030

     57  C    Isotropic =   153.7489   Anisotropy =    25.2633

     58  H    Isotropic =    26.6479   Anisotropy =     5.1725

     59  H    Isotropic =    26.0392   Anisotropy =     3.6785

     60  C    Isotropic =   148.0681   Anisotropy =    28.2190

     61  C    Isotropic =   154.4001   Anisotropy =    24.2251

     62  H    Isotropic =    27.3469   Anisotropy =     6.7465

     63  C    Isotropic =   147.4124   Anisotropy =    29.0306

     64  H    Isotropic =    27.3030   Anisotropy =     4.5270

     65  H    Isotropic =    29.8001   Anisotropy =    11.1571

     66  H    Isotropic =    29.7762   Anisotropy =     9.6440

     67  H    Isotropic =    29.0780   Anisotropy =    12.7752

     68  H    Isotropic =    28.9932   Anisotropy =     7.4477

     69  H    Isotropic =    29.8283   Anisotropy =     9.7194

     70  H    Isotropic =    29.7969   Anisotropy =    11.5902

     71  H    Isotropic =    29.1115   Anisotropy =     6.7811

     72  H    Isotropic =    29.2773   Anisotropy =    12.3270

     73  C    Isotropic =   128.0456   Anisotropy =    76.9238

     74  H    Isotropic =    27.7104   Anisotropy =     9.2154

     75  H    Isotropic =    28.3645   Anisotropy =     8.1816

     76  H    Isotropic =    28.3432   Anisotropy =     8.4218

     77  C    Isotropic =   127.9984   Anisotropy =    76.7440

     78  H    Isotropic =    28.2095   Anisotropy =     8.5763

     79  H    Isotropic =    27.6119   Anisotropy =     9.1829

     80  H    Isotropic =    28.2362   Anisotropy =     8.0689

     81  O    Isotropic =   204.3811   Anisotropy =   110.7965

     82  O    Isotropic =   205.7251   Anisotropy =   107.7127

 The electronic state is 1-A.
 Alpha  occ. eigenvalues --  -77.23299 -77.22255 -19.25237 -19.24816 -10.33825
 Alpha  occ. eigenvalues --  -10.33306 -10.30959 -10.30929 -10.30724 -10.30566
 Alpha  occ. eigenvalues --  -10.29648 -10.28820 -10.28747 -10.28700 -10.28638
 Alpha  occ. eigenvalues --  -10.28610 -10.28479 -10.28304 -10.28290 -10.28094
 Alpha  occ. eigenvalues --  -10.27972 -10.27577 -10.27272 -10.27190 -10.27084
 Alpha  occ. eigenvalues --  -10.27002 -10.26965 -10.26957 -10.26816 -10.26610
 Alpha  occ. eigenvalues --  -10.26598 -10.26334 -10.26233 -10.26228 -10.26089
 Alpha  occ. eigenvalues --   -6.69240  -6.68225  -4.85520  -4.85466  -4.85153
 Alpha  occ. eigenvalues --   -4.84527  -4.84406  -4.84127  -3.31049  -2.07896
 Alpha  occ. eigenvalues --   -2.07263  -2.04540  -1.16524  -1.16084  -0.96454
 Alpha  occ. eigenvalues --   -0.95658  -0.94180  -0.93230  -0.91337  -0.88847
 Alpha  occ. eigenvalues --   -0.88317  -0.87767  -0.85811  -0.85450  -0.85247
 Alpha  occ. eigenvalues --   -0.84308  -0.80154  -0.80000  -0.79593  -0.79446
 Alpha  occ. eigenvalues --   -0.78917  -0.78771  -0.78744  -0.77537  -0.73834
 Alpha  occ. eigenvalues --   -0.72119  -0.71389  -0.70967  -0.70291  -0.68905
 Alpha  occ. eigenvalues --   -0.66640  -0.65802  -0.65564  -0.63474  -0.62829
 Alpha  occ. eigenvalues --   -0.62502  -0.62101  -0.59869  -0.59118  -0.58506
 Alpha  occ. eigenvalues --   -0.58192  -0.57107  -0.56942  -0.56829  -0.56106
 Alpha  occ. eigenvalues --   -0.56009  -0.55691  -0.55321  -0.55155  -0.54927
 Alpha  occ. eigenvalues --   -0.54750  -0.54422  -0.53516  -0.53376  -0.53012
 Alpha  occ. eigenvalues --   -0.52755  -0.52587  -0.52372  -0.52290  -0.51897
 Alpha  occ. eigenvalues --   -0.51329  -0.50759  -0.50433  -0.49622  -0.48859
 Alpha  occ. eigenvalues --   -0.48540  -0.48335  -0.48182  -0.47867  -0.47780
 Alpha  occ. eigenvalues --   -0.47622  -0.47396  -0.46637  -0.46446  -0.45917
 Alpha  occ. eigenvalues --   -0.45898  -0.45721  -0.45342  -0.44927  -0.44633
 Alpha  occ. eigenvalues --   -0.44187  -0.43771  -0.43710  -0.42974  -0.42663
 Alpha  occ. eigenvalues --   -0.42553  -0.42420  -0.41959  -0.41583  -0.41129
 Alpha  occ. eigenvalues --   -0.40126  -0.40059  -0.36774  -0.36328  -0.35995
 Alpha  occ. eigenvalues --   -0.35729  -0.34506  -0.34076  -0.33323  -0.32726
 Alpha  occ. eigenvalues --   -0.32071  -0.30264
 Alpha virt. eigenvalues --   -0.15816  -0.14035  -0.12712  -0.11458  -0.10936
 Alpha virt. eigenvalues --   -0.10690  -0.09049  -0.07778  -0.07208  -0.06912
 Alpha virt. eigenvalues --   -0.06181  -0.05838  -0.05635  -0.04661  -0.04113

 Mulliken charges:
               1
     1  P    0.394148
     2  P    0.311193
     3  C   -0.656982
     4  H    0.200554
     5  H    0.217211
     6  C   -0.075741
     7  C   -0.423204
     8  H    0.146014
     9  H    0.148715
    10  H    0.153998
    11  C   -0.390082
    12  H    0.121632
    13  H    0.138775
    14  H    0.158563
    15  C   -0.353712
    16  H    0.132783
    17  H    0.149482
    18  H    0.150038
    19  C    0.003968
    20  C   -0.407238
    21  H    0.127409
    22  H    0.155300
    23  H    0.153562
    24  C   -0.430964
    25  H    0.151614
    26  H    0.155405
    27  H    0.159888
    28  C   -0.391915
    29  H    0.139230
    30  H    0.140637
    31  H    0.150643
    32  C   -0.236500
    33  C   -0.044295
    34  H    0.159963
    35  C   -0.183279
    36  H    0.151046
    37  C    0.165628
    38  C   -0.194330
    39  H    0.137148
    40  C   -0.001656
    41  H    0.147888
    42  C   -0.244456
    43  C    0.015005
    44  H    0.128850
    45  C   -0.204225
    46  H    0.138314
    47  C    0.170342
    48  C   -0.174035
    49  H    0.154274
    50  C   -0.074090
    51  H    0.145613
    52  Rh  -0.447938
    53  C   -0.041874
    54  C   -0.087684
    55  C   -0.025519
    56  C   -0.098859
    57  C   -0.356317
    58  H    0.169785
    59  H    0.189753
    60  C   -0.222591
    61  C   -0.356986
    62  H    0.179416
    63  C   -0.232212
    64  H    0.224936
    65  H    0.166848
    66  H    0.167276
    67  H    0.171211
    68  H    0.129132
    69  H    0.166970
    70  H    0.165947
    71  H    0.131934
    72  H    0.169737
    73  C   -0.220803
    74  H    0.162529
    75  H    0.134787
    76  H    0.134095
    77  C   -0.223343
    78  H    0.135637
    79  H    0.163947
    80  H    0.134014
    81  O   -0.185494
    82  O   -0.186463
 Sum of Mulliken charges =   1.00000

 Dipole moment (field-independent basis, Debye):
    X=             -0.7489    Y=              1.1084    Z=             -1.5464  Tot=              2.0446
 Quadrupole moment (field-independent basis, Debye-Ang):
   XX=           -173.0898   YY=           -203.0851   ZZ=           -219.8077
   XY=             -4.7145   XZ=              2.2737   YZ=             -7.3287

 Summary of Natural Population Analysis:

                                       Natural Population
                Natural  -----------------------------------------------
    Atom  No    Charge         Core      Valence    Rydberg      Total
 -----------------------------------------------------------------------
      P    1    1.06131      9.99689     3.89680    0.04500    13.93869
      P    2    1.13576      9.99655     3.81594    0.05175    13.86424
      C    3   -1.00190      1.99940     4.98378    0.01871     7.00190
      H    4    0.25279      0.00000     0.74488    0.00233     0.74721
      H    5    0.25812      0.00000     0.73976    0.00213     0.74188
      C    6   -0.25567      1.99942     4.23951    0.01674     6.25567
      C    7   -0.60374      1.99935     4.59611    0.00828     6.60374
      H    8    0.20767      0.00000     0.79079    0.00154     0.79233
      H    9    0.20908      0.00000     0.78920    0.00172     0.79092
      H   10    0.22171      0.00000     0.77646    0.00183     0.77829
      C   11   -0.59770      1.99936     4.58981    0.00853     6.59770
      H   12    0.20037      0.00000     0.79792    0.00171     0.79963
      H   13    0.21813      0.00000     0.78015    0.00172     0.78187
      H   14    0.22159      0.00000     0.77654    0.00187     0.77841
      C   15   -0.60688      1.99935     4.59868    0.00885     6.60688
      H   16    0.20516      0.00000     0.79314    0.00170     0.79484
      H   17    0.22105      0.00000     0.77719    0.00176     0.77895
      H   18    0.21323      0.00000     0.78513    0.00164     0.78677
      C   19   -0.26096      1.99941     4.24422    0.01732     6.26096
      C   20   -0.60049      1.99935     4.59298    0.00816     6.60049
      H   21    0.20710      0.00000     0.79144    0.00146     0.79290
      H   22    0.22061      0.00000     0.77759    0.00180     0.77939
      H   23    0.21052      0.00000     0.78783    0.00165     0.78948
      C   24   -0.60215      1.99936     4.59317    0.00962     6.60215
      H   25    0.20929      0.00000     0.78869    0.00201     0.79071
      H   26    0.22184      0.00000     0.77630    0.00185     0.77816
      H   27    0.21968      0.00000     0.77878    0.00154     0.78032
      C   28   -0.60540      1.99935     4.59717    0.00887     6.60540
      H   29    0.20648      0.00000     0.79167    0.00185     0.79352
      H   30    0.20740      0.00000     0.79090    0.00170     0.79260
      H   31    0.22142      0.00000     0.77680    0.00178     0.77858
      C   32   -0.38436      1.99898     4.36172    0.02365     6.38436
      C   33   -0.16679      1.99911     4.15176    0.01591     6.16679
      H   34    0.22412      0.00000     0.77407    0.00181     0.77588
      C   35   -0.28854      1.99907     4.27544    0.01403     6.28854
      H   36    0.22518      0.00000     0.77303    0.00179     0.77482
      C   37    0.30489      1.99879     3.67512    0.02119     5.69511
      C   38   -0.23018      1.99909     4.21592    0.01517     6.23018
      H   39    0.23211      0.00000     0.76650    0.00140     0.76789
      C   40   -0.18287      1.99911     4.16817    0.01559     6.18287
      H   41    0.21067      0.00000     0.78694    0.00238     0.78933
      C   42   -0.38813      1.99898     4.36550    0.02364     6.38813
      C   43   -0.16398      1.99910     4.14922    0.01566     6.16398
      H   44    0.21893      0.00000     0.77910    0.00197     0.78107
      C   45   -0.23576      1.99909     4.22169    0.01499     6.23576
      H   46    0.23337      0.00000     0.76525    0.00138     0.76663
      C   47    0.30877      1.99880     3.67132    0.02111     5.69123
      C   48   -0.28974      1.99907     4.27662    0.01405     6.28974
      H   49    0.22625      0.00000     0.77192    0.00183     0.77375
      C   50   -0.17216      1.99910     4.15663    0.01643     6.17216
      H   51    0.21480      0.00000     0.78307    0.00214     0.78520
     Rh   52   -0.35990     35.98604     9.34461    0.02925    45.35990
      C   53   -0.17244      1.99908     4.15348    0.01987     6.17244
      C   54   -0.16976      1.99910     4.15066    0.02000     6.16976
      C   55   -0.19357      1.99908     4.17520    0.01929     6.19357
      C   56   -0.15550      1.99910     4.13708    0.01932     6.15550
      C   57   -0.42550      1.99935     4.41409    0.01206     6.42550
      H   58    0.21940      0.00000     0.77831    0.00229     0.78060
      H   59    0.22249      0.00000     0.77530    0.00220     0.77751
      C   60   -0.41733      1.99935     4.40530    0.01268     6.41733
      C   61   -0.42147      1.99936     4.41026    0.01186     6.42147
      H   62    0.22090      0.00000     0.77703    0.00207     0.77910
      C   63   -0.41564      1.99935     4.40369    0.01260     6.41564
      H   64    0.23133      0.00000     0.76659    0.00209     0.76867
      H   65    0.22752      0.00000     0.77098    0.00151     0.77248
      H   66    0.21615      0.00000     0.78188    0.00197     0.78385
      H   67    0.23341      0.00000     0.76470    0.00189     0.76659
      H   68    0.21607      0.00000     0.78222    0.00170     0.78393
      H   69    0.21502      0.00000     0.78299    0.00199     0.78498
      H   70    0.22669      0.00000     0.77179    0.00152     0.77331
      H   71    0.21539      0.00000     0.78286    0.00176     0.78461
      H   72    0.23292      0.00000     0.76517    0.00190     0.76708
      C   73   -0.25991      1.99927     4.24786    0.01278     6.25991
      H   74    0.20824      0.00000     0.79058    0.00118     0.79176
      H   75    0.17732      0.00000     0.82059    0.00209     0.82268
      H   76    0.17728      0.00000     0.82062    0.00210     0.82272
      C   77   -0.26023      1.99927     4.24821    0.01275     6.26023
      H   78    0.17758      0.00000     0.82034    0.00208     0.82242
      H   79    0.20940      0.00000     0.78942    0.00118     0.79060
      H   80    0.17696      0.00000     0.82094    0.00209     0.82304
      O   81   -0.43185      1.99975     6.41731    0.01479     8.43185
      O   82   -0.43301      1.99975     6.41849    0.01477     8.43301
 =======================================================================
   * Total *    1.00000    121.95395   199.33689    0.70916   322.00000

 Normal termination of Gaussian 16 at Tue Jan 21 14:37:40 2025.
