 Gaussian 16, Revision B.01,
 Gaussian 16:  ES64L-G16RevB.01 20-Dec-2017

 ------------------------------------------
 # nmr=giao b3lyp/genecp pop=nbo scfcyc=200
 ------------------------------------------

 ---------
 MB-65_SPE
 ---------
 Symbolic Z-matrix:
 Charge =  1 Multiplicity = 1

                         Standard orientation:
 ---------------------------------------------------------------------
 Center     Atomic      Atomic             Coordinates (Angstroms)
 Number     Number       Type             X           Y           Z
 ---------------------------------------------------------------------
      1         15           0       -1.283100    0.313980   -0.594500
      2          8           0       -1.696800    1.767230    0.032780
      3          8           0       -2.535170   -0.114050   -1.571650
      4          6           0        0.015840    0.608550   -1.895000
      5          1           0       -0.117820   -0.130950   -2.686840
      6          1           0        0.084160    1.611600   -2.316430
      7          6           0       -2.196810    2.880760   -0.716660
      8          1           0       -2.356820    2.640840   -1.768670
      9          1           0       -1.494900    3.708710   -0.621840
     10          6           0       -3.534300    3.309240   -0.124280
     11          6           0       -3.775970   -0.661970   -1.119720
     12          1           0       -4.583800   -0.008770   -1.444750
     13          1           0       -3.821220   -0.767680   -0.034920
     14          6           0       -3.970810   -2.033940   -1.753810
     15          9           0       -4.005950    4.360630   -0.809730
     16          9           0       -4.443540    2.310090   -0.211410
     17          9           0       -3.428130    3.649400    1.164200
     18          9           0       -3.965280   -1.974550   -3.089410
     19          9           0       -5.142100   -2.547300   -1.349460
     20          9           0       -2.989170   -2.887880   -1.377750
     21         15           0        1.392210    0.114270   -0.754770
     22          8           0        2.490120   -0.799650   -1.551230
     23          8           0        2.095840    1.599370   -0.603630
     24          6           0        3.251440   -0.372280   -2.688250
     25          1           0        3.033530    0.657010   -2.974760
     26          1           0        3.041410   -1.045270   -3.518670
     27          6           0        4.734850   -0.466830   -2.350700
     28          6           0        2.996960    1.973320    0.440260
     29          1           0        3.820400    2.522630   -0.012260
     30          1           0        3.398480    1.116190    0.980840
     31          6           0        2.290030    2.888670    1.433190
     32          9           0        5.458100   -0.082190   -3.410890
     33          9           0        5.047010    0.342780   -1.312140
     34          9           0        5.093110   -1.711800   -2.014770
     35          9           0        1.774980    3.972080    0.834040
     36          9           0        3.163960    3.290260    2.367650
     37          9           0        1.275800    2.248190    2.056380
     38         45           0        0.097840   -0.910270    0.838410
     39          6           0        1.540500   -2.581990    1.508950
     40          6           0        1.701930   -1.488250    2.332020
     41          6           0       -1.223320   -1.579080    2.626920
     42          6           0       -1.400960   -2.480250    1.605600
     43          6           0        0.767960   -3.839860    1.853940
     44          1           0        2.213820   -2.662040    0.662560
     45          1           0        2.530130   -0.825310    2.103130
     46          6           0        1.087170   -1.256060    3.688290
     47          6           0       -0.353280   -1.787700    3.849320
     48          1           0       -1.926040   -0.753690    2.686200
     49          6           0       -0.712900   -3.807950    1.423020
     50          1           0       -2.260140   -2.342540    0.961040
     51          1           0        1.249930   -4.682260    1.356170
     52          1           0        0.850870   -4.032570    2.923050
     53          1           0        1.731570   -1.696450    4.458850
     54          1           0        1.094680   -0.180300    3.874800
     55          1           0       -0.343420   -2.844360    4.113590
     56          1           0       -0.815630   -1.269030    4.690080
     57          1           0       -0.786690   -4.073250    0.367010
     58          1           0       -1.272900   -4.581080    1.963290
 ---------------------------------------------------------------------

 SCF Done:  E(RB3LYP) =  -2954.14529210     A.U. after   16 cycles

      1  P    Isotropic =   162.8014   Anisotropy =   182.6620

      2  O    Isotropic =   214.4509   Anisotropy =    76.2379

      3  O    Isotropic =   211.1000   Anisotropy =   105.1336

      4  C    Isotropic =   109.5219   Anisotropy =    64.5021

      5  H    Isotropic =    27.9267   Anisotropy =     4.0019

      6  H    Isotropic =    28.1607   Anisotropy =     7.5365

      7  C    Isotropic =   117.5956   Anisotropy =    52.8817

      8  H    Isotropic =    27.9848   Anisotropy =     7.0932

      9  H    Isotropic =    27.8489   Anisotropy =     6.6046

     10  C    Isotropic =    50.2167   Anisotropy =     7.9742

     11  C    Isotropic =   114.1767   Anisotropy =    52.7774

     12  H    Isotropic =    27.6210   Anisotropy =     6.2627

     13  H    Isotropic =    28.2638   Anisotropy =     4.3324

     14  C    Isotropic =    50.2839   Anisotropy =     9.8867

     15  F    Isotropic =   246.5372   Anisotropy =   130.3662

     16  F    Isotropic =   250.8179   Anisotropy =   140.2649

     17  F    Isotropic =   248.5521   Anisotropy =   129.3274

     18  F    Isotropic =   248.2643   Anisotropy =   130.4995

     19  F    Isotropic =   247.4126   Anisotropy =   129.1375

     20  F    Isotropic =   251.2206   Anisotropy =   138.1986

     21  P    Isotropic =   156.7097   Anisotropy =   206.2227

     22  O    Isotropic =   214.9468   Anisotropy =    78.9913

     23  O    Isotropic =   204.8736   Anisotropy =    95.9373

     24  C    Isotropic =   117.6316   Anisotropy =    53.9848

     25  H    Isotropic =    28.0081   Anisotropy =     7.3069

     26  H    Isotropic =    27.9620   Anisotropy =     7.8835

     27  C    Isotropic =    50.3039   Anisotropy =     8.2727

     28  C    Isotropic =   114.0658   Anisotropy =    51.5704

     29  H    Isotropic =    27.6818   Anisotropy =     6.7770

     30  H    Isotropic =    28.0632   Anisotropy =     3.7082

     31  C    Isotropic =    49.9508   Anisotropy =     9.5500

     32  F    Isotropic =   247.1440   Anisotropy =   129.1154

     33  F    Isotropic =   251.6602   Anisotropy =   138.3360

     34  F    Isotropic =   248.2791   Anisotropy =   132.1451

     35  F    Isotropic =   249.8312   Anisotropy =   133.2280

     36  F    Isotropic =   247.3537   Anisotropy =   128.7007

     37  F    Isotropic =   249.5926   Anisotropy =   135.2836

     38  Rh   Isotropic =  -328.8329   Anisotropy =   383.8831

     39  C    Isotropic =    65.9730   Anisotropy =   142.3112

     40  C    Isotropic =    76.1173   Anisotropy =   116.3850

     41  C    Isotropic =    68.5928   Anisotropy =   137.5857

     42  C    Isotropic =    67.9228   Anisotropy =   129.7607

     43  C    Isotropic =   154.1823   Anisotropy =    25.4540

     44  H    Isotropic =    26.2580   Anisotropy =     6.3843

     45  H    Isotropic =    26.3381   Anisotropy =     3.6106

     46  C    Isotropic =   148.8669   Anisotropy =    29.4715

     47  C    Isotropic =   155.0744   Anisotropy =    24.0955

     48  H    Isotropic =    26.5657   Anisotropy =     6.3903

     49  C    Isotropic =   147.3917   Anisotropy =    30.6513

     50  H    Isotropic =    25.5317   Anisotropy =     4.8704

     51  H    Isotropic =    29.7980   Anisotropy =    11.2652

     52  H    Isotropic =    29.6849   Anisotropy =     8.6586

     53  H    Isotropic =    29.0470   Anisotropy =    11.9995

     54  H    Isotropic =    29.0803   Anisotropy =     7.5733

     55  H    Isotropic =    29.7367   Anisotropy =     8.8981

     56  H    Isotropic =    29.8359   Anisotropy =    11.5023

     57  H    Isotropic =    28.9991   Anisotropy =     7.0691

     58  H    Isotropic =    29.1190   Anisotropy =    11.8408

 The electronic state is 1-A.
 Alpha  occ. eigenvalues --  -77.34619 -77.34532 -24.83213 -24.83208 -24.83091
 Alpha  occ. eigenvalues --  -24.83064 -24.83005 -24.82976 -24.82864 -24.82816
 Alpha  occ. eigenvalues --  -24.82782 -24.82650 -24.82577 -24.82355 -19.31104
 Alpha  occ. eigenvalues --  -19.31024 -19.30907 -19.30591 -10.54443 -10.54399
 Alpha  occ. eigenvalues --  -10.54227 -10.54021 -10.39005 -10.38860 -10.38781
 Alpha  occ. eigenvalues --  -10.38562 -10.33900 -10.32624 -10.32591 -10.32525
 Alpha  occ. eigenvalues --  -10.32335 -10.30239 -10.30185 -10.30011 -10.30004
 Alpha  occ. eigenvalues --   -6.79669  -6.79554  -4.96118  -4.96004  -4.95950
 Alpha  occ. eigenvalues --   -4.95841  -4.95482  -4.95361  -3.36155  -2.13345
 Alpha  occ. eigenvalues --   -2.12375  -2.09327  -1.43474  -1.43425  -1.43262
 Alpha  occ. eigenvalues --   -1.42991  -1.34719  -1.34669  -1.34563  -1.34511
 Alpha  occ. eigenvalues --   -1.34491  -1.34364  -1.34222  -1.34083  -1.21945
 Alpha  occ. eigenvalues --   -1.21652  -1.18638  -1.18370  -0.97629  -0.94514
 Alpha  occ. eigenvalues --   -0.92575  -0.92331  -0.90925  -0.90817  -0.90536
 Alpha  occ. eigenvalues --   -0.88671  -0.83426  -0.81298  -0.80885  -0.80172
 Alpha  occ. eigenvalues --   -0.79624  -0.79317  -0.75911  -0.74727  -0.73510
 Alpha  occ. eigenvalues --   -0.72024  -0.71768  -0.71760  -0.71706  -0.71558
 Alpha  occ. eigenvalues --   -0.71336  -0.71163  -0.70754  -0.70270  -0.69760
 Alpha  occ. eigenvalues --   -0.68898  -0.67968  -0.67693  -0.66403  -0.66116
 Alpha  occ. eigenvalues --   -0.65670  -0.65371  -0.63333  -0.63210  -0.62005
 Alpha  occ. eigenvalues --   -0.61729  -0.60873  -0.60139  -0.59055  -0.58986
 Alpha  occ. eigenvalues --   -0.58795  -0.58651  -0.58572  -0.58432  -0.58329
 Alpha  occ. eigenvalues --   -0.58207  -0.58160  -0.57885  -0.57173  -0.56405
 Alpha  occ. eigenvalues --   -0.55990  -0.55728  -0.55437  -0.55170  -0.55020
 Alpha  occ. eigenvalues --   -0.54894  -0.54820  -0.54607  -0.54595  -0.54427
 Alpha  occ. eigenvalues --   -0.54312  -0.54021  -0.53719  -0.53507  -0.52989
 Alpha  occ. eigenvalues --   -0.52884  -0.52745  -0.52441  -0.51518  -0.51323
 Alpha  occ. eigenvalues --   -0.51022  -0.50946  -0.50267  -0.50129  -0.48890
 Alpha  occ. eigenvalues --   -0.48672  -0.47179  -0.46505  -0.46478  -0.46202
 Alpha  occ. eigenvalues --   -0.45958  -0.45739  -0.45335  -0.44516  -0.41042
 Alpha  occ. eigenvalues --   -0.40599  -0.39869  -0.39234  -0.38072  -0.34942
 Alpha virt. eigenvalues --   -0.20490  -0.18955  -0.14137  -0.12790  -0.11204
 Alpha virt. eigenvalues --   -0.11039  -0.09999  -0.09352  -0.08824  -0.07503
 Alpha virt. eigenvalues --   -0.07330  -0.06937  -0.05970  -0.05760  -0.05116

 Mulliken charges:
               1
     1  P    0.628731
     2  O   -0.316153
     3  O   -0.348032
     4  C   -0.537385
     5  H    0.236512
     6  H    0.220182
     7  C   -0.164257
     8  H    0.174363
     9  H    0.199074
    10  C    0.452228
    11  C   -0.192796
    12  H    0.211762
    13  H    0.164684
    14  C    0.474101
    15  F   -0.138396
    16  F   -0.168831
    17  F   -0.135563
    18  F   -0.136875
    19  F   -0.139959
    20  F   -0.166878
    21  P    0.642198
    22  O   -0.328559
    23  O   -0.349422
    24  C   -0.153565
    25  H    0.172431
    26  H    0.196955
    27  C    0.455020
    28  C   -0.163533
    29  H    0.205955
    30  H    0.150923
    31  C    0.460495
    32  F   -0.136215
    33  F   -0.168581
    34  F   -0.138549
    35  F   -0.146844
    36  F   -0.137980
    37  F   -0.156703
    38  Rh  -0.546903
    39  C    0.027633
    40  C   -0.120232
    41  C    0.043685
    42  C   -0.119092
    43  C   -0.353030
    44  H    0.203565
    45  H    0.187210
    46  C   -0.225739
    47  C   -0.354548
    48  H    0.181422
    49  C   -0.242991
    50  H    0.197380
    51  H    0.183457
    52  H    0.174587
    53  H    0.187874
    54  H    0.152860
    55  H    0.173819
    56  H    0.185047
    57  H    0.155129
    58  H    0.188329
 Sum of Mulliken charges =   1.00000

 Dipole moment (field-independent basis, Debye):
    X=              1.3441    Y=             -2.7619    Z=              0.4852  Tot=              3.1097
 Quadrupole moment (field-independent basis, Debye-Ang):
   XX=           -213.5054   YY=           -212.3132   ZZ=           -199.8734
   XY=              1.6702   XZ=             -1.5292   YZ=            -22.5063

 Summary of Natural Population Analysis:

                                       Natural Population
                Natural  -----------------------------------------------
    Atom  No    Charge         Core      Valence    Rydberg      Total
 -----------------------------------------------------------------------
      P    1    1.68889      9.99602     3.22825    0.08684    13.31111
      O    2   -0.74502      1.99980     6.73093    0.01429     8.74502
      O    3   -0.75135      1.99980     6.73819    0.01336     8.75135
      C    4   -1.08743      1.99945     5.07200    0.01598     7.08743
      H    5    0.28497      0.00000     0.71356    0.00147     0.71503
      H    6    0.27531      0.00000     0.72264    0.00206     0.72469
      C    7   -0.15693      1.99913     4.13910    0.01870     6.15693
      H    8    0.20804      0.00000     0.78991    0.00205     0.79196
      H    9    0.22586      0.00000     0.77240    0.00174     0.77414
      C   10    0.91818      1.99936     3.03069    0.05178     5.08182
      C   11   -0.14653      1.99913     4.12928    0.01813     6.14653
      H   12    0.23363      0.00000     0.76466    0.00171     0.76637
      H   13    0.20338      0.00000     0.79475    0.00187     0.79662
      C   14    0.91502      1.99935     3.03407    0.05157     5.08498
      F   15   -0.29542      1.99992     7.28760    0.00789     9.29542
      F   16   -0.32211      1.99992     7.31409    0.00809     9.32211
      F   17   -0.29310      1.99992     7.28517    0.00801     9.29310
      F   18   -0.29344      1.99992     7.28554    0.00798     9.29344
      F   19   -0.29627      1.99992     7.28848    0.00787     9.29627
      F   20   -0.32056      1.99992     7.31249    0.00815     9.32056
      P   21    1.70768      9.99571     3.20779    0.08882    13.29232
      O   22   -0.74900      1.99980     6.73590    0.01330     8.74900
      O   23   -0.75598      1.99981     6.74164    0.01453     8.75598
      C   24   -0.15484      1.99913     4.13737    0.01834     6.15484
      H   25    0.21072      0.00000     0.78730    0.00198     0.78928
      H   26    0.22509      0.00000     0.77328    0.00163     0.77491
      C   27    0.91721      1.99936     3.03170    0.05174     5.08279
      C   28   -0.14441      1.99913     4.12661    0.01867     6.14441
      H   29    0.23362      0.00000     0.76467    0.00171     0.76638
      H   30    0.20473      0.00000     0.79342    0.00185     0.79527
      C   31    0.91272      1.99934     3.03659    0.05135     5.08728
      F   32   -0.29387      1.99992     7.28603    0.00793     9.29387
      F   33   -0.32125      1.99992     7.31318    0.00814     9.32125
      F   34   -0.29535      1.99992     7.28745    0.00798     9.29535
      F   35   -0.30016      1.99992     7.29231    0.00793     9.30016
      F   36   -0.29589      1.99992     7.28810    0.00787     9.29589
      F   37   -0.31026      1.99992     7.30218    0.00815     9.31026
     Rh   38   -0.52592     35.98430     9.51583    0.02579    45.52592
      C   39   -0.13576      1.99907     4.11589    0.02080     6.13576
      C   40   -0.15483      1.99906     4.13449    0.02128     6.15483
      C   41   -0.16412      1.99907     4.14435    0.02070     6.16412
      C   42   -0.13387      1.99907     4.11326    0.02154     6.13387
      C   43   -0.42823      1.99936     4.41690    0.01198     6.42823
      H   44    0.24167      0.00000     0.75674    0.00159     0.75833
      H   45    0.22223      0.00000     0.77569    0.00208     0.77777
      C   46   -0.42875      1.99935     4.41671    0.01268     6.42875
      C   47   -0.42607      1.99936     4.41479    0.01192     6.42607
      H   48    0.23810      0.00000     0.76039    0.00151     0.76190
      C   49   -0.42943      1.99935     4.41731    0.01278     6.42943
      H   50    0.22828      0.00000     0.76957    0.00214     0.77172
      H   51    0.23823      0.00000     0.76041    0.00136     0.76177
      H   52    0.21685      0.00000     0.78116    0.00199     0.78315
      H   53    0.24420      0.00000     0.75410    0.00170     0.75580
      H   54    0.23056      0.00000     0.76793    0.00151     0.76944
      H   55    0.21650      0.00000     0.78154    0.00196     0.78350
      H   56    0.23909      0.00000     0.75954    0.00137     0.76091
      H   57    0.23083      0.00000     0.76769    0.00149     0.76917
      H   58    0.24458      0.00000     0.75369    0.00173     0.75542
 =======================================================================
   * Total *    1.00000    121.96138   215.21728    0.82135   338.00000

 Normal termination of Gaussian 16 at Tue Jan 21 14:54:15 2025.
