 Gaussian 16, Revision B.01,
 Gaussian 16:  ES64L-G16RevB.01 20-Dec-2017

 ------------------------------------------
 # nmr=giao b3lyp/genecp pop=nbo scfcyc=200
 ------------------------------------------

 ---------
 MB-71_SPE
 ---------
 Symbolic Z-matrix:
 Charge =  1 Multiplicity = 1

                         Standard orientation:
 ---------------------------------------------------------------------
 Center     Atomic      Atomic             Coordinates (Angstroms)
 Number     Number       Type             X           Y           Z
 ---------------------------------------------------------------------
      1         15           0        1.453641    0.276600    0.520210
      2          6           0        2.785901   -0.256210    1.677110
      3          6           0        2.744251    0.028560    3.044920
      4          6           0        3.776991   -0.381070    3.882220
      5          6           0        4.864841   -1.075420    3.364710
      6          6           0        4.918671   -1.359600    2.003890
      7          6           0        3.884621   -0.958160    1.166060
      8          1           0        3.944031   -1.191180    0.110240
      9          1           0        5.763501   -1.898540    1.593780
     10          1           0        5.667561   -1.392700    4.018090
     11          1           0        3.731251   -0.152770    4.939680
     12          1           0        1.915191    0.578960    3.470210
     13          6           0        0.010181    0.866470    1.548860
     14         15           0       -1.349259    0.311170    0.381390
     15          1           0       -0.045769    0.254650    2.448760
     16          1           0        0.006491    1.917170    1.839320
     17         45           0        0.103691   -1.222540   -0.740760
     18          6           0        1.611331   -2.365450   -2.000800
     19          6           0        1.495051   -2.981040   -0.769910
     20          6           0       -1.362679   -2.892260   -1.251410
     21          6           0       -1.261149   -2.036950   -2.329400
     22          6           0        0.976891   -2.847880   -3.291910
     23          1           0        2.424501   -1.658020   -2.121490
     24          1           0        2.238211   -2.739820   -0.018840
     25          6           0        0.674921   -4.204560   -0.444470
     26          6           0       -0.699509   -4.251930   -1.140510
     27          1           0       -2.185629   -2.724380   -0.566930
     28          6           0       -0.413919   -2.233470   -3.561910
     29          1           0       -2.031129   -1.280080   -2.432620
     30          1           0        1.635701   -2.587820   -4.121980
     31          1           0        0.917541   -3.936140   -3.287800
     32          1           0        1.248641   -5.107900   -0.687090
     33          1           0        0.529751   -4.225720    0.637700
     34          1           0       -0.611419   -4.698020   -2.130890
     35          1           0       -1.355439   -4.913000   -0.571590
     36          1           0       -0.286379   -1.257100   -4.034820
     37          1           0       -0.956709   -2.848700   -4.290490
     38          6           0       -2.716629   -0.401430    1.468240
     39          6           0       -3.022299    0.352240    2.775790
     40          6           0       -4.013439   -0.678130    0.683840
     41          1           0       -2.282919   -1.371060    1.742250
     42          6           0       -4.020149   -0.442730    3.632620
     43          1           0       -3.445859    1.333630    2.552510
     44          1           0       -2.109239    0.526420    3.349240
     45          6           0       -5.013219   -1.466540    1.542520
     46          1           0       -4.470849    0.270810    0.389510
     47          1           0       -3.805339   -1.223790   -0.239930
     48          6           0       -5.308219   -0.752300    2.864480
     49          1           0       -4.245119    0.119840    4.541820
     50          1           0       -3.552289   -1.379900    3.954590
     51          1           0       -5.935909   -1.620010    0.977970
     52          1           0       -4.604499   -2.462260    1.748300
     53          1           0       -5.975609   -1.360410    3.479120
     54          1           0       -5.841959    0.182670    2.659760
     55          6           0       -1.881839    1.897470   -0.487560
     56          6           0       -2.641999    1.649620   -1.803380
     57          6           0       -2.615359    2.924150    0.392730
     58          1           0       -0.911549    2.330020   -0.760060
     59          6           0       -2.883369    2.967040   -2.555090
     60          1           0       -3.604379    1.173380   -1.594920
     61          1           0       -2.076609    0.963580   -2.437000
     62          6           0       -2.839189    4.238310   -0.370200
     63          1           0       -3.587069    2.521460    0.690210
     64          1           0       -2.059179    3.119590    1.313060
     65          6           0       -3.593699    4.004710   -1.681750
     66          1           0       -3.463769    2.768270   -3.459170
     67          1           0       -1.920139    3.370700   -2.887640
     68          1           0       -3.386189    4.938380    0.265760
     69          1           0       -1.869999    4.703630   -0.582870
     70          1           0       -3.700779    4.944870   -2.227330
     71          1           0       -4.609369    3.658850   -1.458570
     72          6           0        2.111621    1.822830   -0.334610
     73          6           0        2.665201    2.873600    0.641060
     74          6           0        3.136291    1.492950   -1.433340
     75          1           0        1.222161    2.233230   -0.825980
     76          6           0        3.105531    4.141580   -0.106370
     77          1           0        3.522471    2.453310    1.174510
     78          1           0        1.921931    3.134280    1.399140
     79          6           0        3.578791    2.764300   -2.172770
     80          1           0        4.015451    1.020970   -0.983330
     81          1           0        2.711981    0.777900   -2.142210
     82          6           0        4.119351    3.823870   -1.208610
     83          1           0        3.527901    4.853230    0.607000
     84          1           0        2.227321    4.627270   -0.546900
     85          1           0        4.334531    2.506070   -2.918380
     86          1           0        2.725341    3.174430   -2.724630
     87          1           0        4.377701    4.733200   -1.755900
     88          1           0        5.047541    3.460900   -0.753330
 ---------------------------------------------------------------------

 SCF Done:  E(RB3LYP) =  -2082.50038952     A.U. after   15 cycles

      1  P    Isotropic =   313.4187   Anisotropy =    72.1420

      2  C    Isotropic =    47.8514   Anisotropy =   172.5437

      3  C    Isotropic =    49.4271   Anisotropy =   184.9719

      4  C    Isotropic =    48.5286   Anisotropy =   190.4163

      5  C    Isotropic =    46.2207   Anisotropy =   196.9901

      6  C    Isotropic =    49.1669   Anisotropy =   190.2042

      7  C    Isotropic =    46.9443   Anisotropy =   182.0644

      8  H    Isotropic =    24.8151   Anisotropy =     9.8467

      9  H    Isotropic =    24.1534   Anisotropy =     6.7746

     10  H    Isotropic =    24.0501   Anisotropy =     3.6573

     11  H    Isotropic =    24.1221   Anisotropy =     6.3027

     12  H    Isotropic =    24.6035   Anisotropy =    12.0066

     13  C    Isotropic =   148.8528   Anisotropy =    41.3366

     14  P    Isotropic =   308.2958   Anisotropy =    78.4243

     15  H    Isotropic =    28.7979   Anisotropy =     5.0270

     16  H    Isotropic =    28.9936   Anisotropy =     7.8956

     17  Rh   Isotropic =  -324.3331   Anisotropy =   349.1493

     18  C    Isotropic =    84.5547   Anisotropy =   115.6704

     19  C    Isotropic =    73.6168   Anisotropy =   123.6392

     20  C    Isotropic =    79.1271   Anisotropy =   121.2226

     21  C    Isotropic =    79.8038   Anisotropy =   113.4273

     22  C    Isotropic =   154.3628   Anisotropy =    24.6423

     23  H    Isotropic =    26.9468   Anisotropy =     6.3921

     24  H    Isotropic =    26.5709   Anisotropy =     5.8823

     25  C    Isotropic =   147.5298   Anisotropy =    30.8142

     26  C    Isotropic =   153.8275   Anisotropy =    25.3415

     27  H    Isotropic =    27.0177   Anisotropy =     6.7942

     28  C    Isotropic =   147.8872   Anisotropy =    30.1998

     29  H    Isotropic =    26.3159   Anisotropy =     3.9157

     30  H    Isotropic =    29.8381   Anisotropy =    11.3672

     31  H    Isotropic =    29.8506   Anisotropy =     9.7107

     32  H    Isotropic =    29.2972   Anisotropy =    12.6020

     33  H    Isotropic =    29.3610   Anisotropy =     6.6707

     34  H    Isotropic =    29.8696   Anisotropy =     9.4106

     35  H    Isotropic =    29.9588   Anisotropy =    11.2257

     36  H    Isotropic =    29.1171   Anisotropy =     7.1725

     37  H    Isotropic =    29.1114   Anisotropy =    12.4776

     38  C    Isotropic =   132.0684   Anisotropy =    34.2824

     39  C    Isotropic =   151.8552   Anisotropy =    15.3638

     40  C    Isotropic =   151.2730   Anisotropy =    12.2672

     41  H    Isotropic =    29.8786   Anisotropy =     6.2448

     42  C    Isotropic =   153.0025   Anisotropy =     8.9288

     43  H    Isotropic =    30.3278   Anisotropy =     6.0155

     44  H    Isotropic =    30.0970   Anisotropy =     6.3201

     45  C    Isotropic =   153.3872   Anisotropy =     8.4279

     46  H    Isotropic =    30.3226   Anisotropy =     6.4068

     47  H    Isotropic =    30.4737   Anisotropy =     6.9863

     48  C    Isotropic =   155.6507   Anisotropy =     1.9673

     49  H    Isotropic =    29.9779   Anisotropy =    10.7793

     50  H    Isotropic =    30.6456   Anisotropy =     7.9884

     51  H    Isotropic =    30.0209   Anisotropy =    10.3036

     52  H    Isotropic =    30.6474   Anisotropy =     7.3988

     53  H    Isotropic =    30.1086   Anisotropy =    11.7385

     54  H    Isotropic =    30.5398   Anisotropy =     8.6721

     55  C    Isotropic =   131.4344   Anisotropy =    32.3794

     56  C    Isotropic =   149.1533   Anisotropy =    15.7218

     57  C    Isotropic =   151.9516   Anisotropy =    14.4323

     58  H    Isotropic =    30.0568   Anisotropy =     7.0065

     59  C    Isotropic =   152.9656   Anisotropy =     7.9891

     60  H    Isotropic =    30.2734   Anisotropy =     4.8625

     61  H    Isotropic =    29.7880   Anisotropy =     8.9236

     62  C    Isotropic =   153.0657   Anisotropy =     7.5403

     63  H    Isotropic =    30.2997   Anisotropy =     7.5660

     64  H    Isotropic =    30.0235   Anisotropy =     4.0384

     65  C    Isotropic =   155.7909   Anisotropy =     2.1994

     66  H    Isotropic =    29.9050   Anisotropy =    10.1836

     67  H    Isotropic =    30.4983   Anisotropy =     7.2304

     68  H    Isotropic =    29.9015   Anisotropy =    10.7021

     69  H    Isotropic =    30.6623   Anisotropy =     7.4458

     70  H    Isotropic =    30.0541   Anisotropy =    11.5854

     71  H    Isotropic =    30.5048   Anisotropy =     8.8574

     72  C    Isotropic =   133.7462   Anisotropy =    30.0499

     73  C    Isotropic =   155.9873   Anisotropy =    10.9132

     74  C    Isotropic =   151.9251   Anisotropy =    13.2791

     75  H    Isotropic =    29.9907   Anisotropy =     6.9345

     76  C    Isotropic =   154.2636   Anisotropy =     7.7523

     77  H    Isotropic =    31.4442   Anisotropy =     7.1888

     78  H    Isotropic =    30.3911   Anisotropy =     4.9162

     79  C    Isotropic =   153.6409   Anisotropy =     8.3287

     80  H    Isotropic =    30.5405   Anisotropy =     5.8622

     81  H    Isotropic =    29.8531   Anisotropy =     8.0639

     82  C    Isotropic =   156.0483   Anisotropy =     1.9676

     83  H    Isotropic =    30.1658   Anisotropy =    10.9024

     84  H    Isotropic =    30.6794   Anisotropy =     7.7925

     85  H    Isotropic =    29.9934   Anisotropy =    10.4816

     86  H    Isotropic =    30.4779   Anisotropy =     7.2793

     87  H    Isotropic =    30.2340   Anisotropy =    11.8504

     88  H    Isotropic =    30.8630   Anisotropy =     8.8464

 The electronic state is 1-A.
 Alpha  occ. eigenvalues --  -77.23181 -77.22779 -10.30235 -10.29700 -10.29686
 Alpha  occ. eigenvalues --  -10.29605 -10.29499 -10.28976 -10.28911 -10.28906
 Alpha  occ. eigenvalues --  -10.28660 -10.28504 -10.28460 -10.27697 -10.27659
 Alpha  occ. eigenvalues --  -10.27557 -10.27442 -10.27341 -10.27294 -10.27207
 Alpha  occ. eigenvalues --  -10.27183 -10.27156 -10.26989 -10.26966 -10.26851
 Alpha  occ. eigenvalues --  -10.26715 -10.25686 -10.25676 -10.25630 -10.25574
 Alpha  occ. eigenvalues --  -10.25452 -10.25432 -10.25064 -10.25024 -10.24805
 Alpha  occ. eigenvalues --   -6.69192  -6.68796  -4.85503  -4.85378  -4.85098
 Alpha  occ. eigenvalues --   -4.85089  -4.84982  -4.84696  -3.31380  -2.08249
 Alpha  occ. eigenvalues --   -2.07601  -2.04840  -0.96603  -0.94441  -0.94189
 Alpha  occ. eigenvalues --   -0.93428  -0.93105  -0.89066  -0.88809  -0.87949
 Alpha  occ. eigenvalues --   -0.86274  -0.85436  -0.84409  -0.84307  -0.84079
 Alpha  occ. eigenvalues --   -0.83922  -0.83885  -0.83050  -0.80256  -0.77729
 Alpha  occ. eigenvalues --   -0.75000  -0.73169  -0.71339  -0.71051  -0.70913
 Alpha  occ. eigenvalues --   -0.70619  -0.70602  -0.70458  -0.70433  -0.66481
 Alpha  occ. eigenvalues --   -0.66162  -0.65845  -0.65286  -0.65055  -0.64924
 Alpha  occ. eigenvalues --   -0.62464  -0.61737  -0.60015  -0.58683  -0.57873
 Alpha  occ. eigenvalues --   -0.57400  -0.56722  -0.56344  -0.56184  -0.55990
 Alpha  occ. eigenvalues --   -0.55179  -0.54824  -0.54270  -0.53844  -0.53743
 Alpha  occ. eigenvalues --   -0.53629  -0.53532  -0.53391  -0.53186  -0.52729
 Alpha  occ. eigenvalues --   -0.52644  -0.52614  -0.52451  -0.52396  -0.50994
 Alpha  occ. eigenvalues --   -0.49257  -0.48697  -0.48281  -0.48205  -0.48163
 Alpha  occ. eigenvalues --   -0.47963  -0.47843  -0.47668  -0.47410  -0.47347
 Alpha  occ. eigenvalues --   -0.46738  -0.46199  -0.46147  -0.45869  -0.45615
 Alpha  occ. eigenvalues --   -0.45328  -0.44792  -0.44448  -0.44040  -0.43959
 Alpha  occ. eigenvalues --   -0.43855  -0.43310  -0.43134  -0.43019  -0.42305
 Alpha  occ. eigenvalues --   -0.42039  -0.41728  -0.41227  -0.40975  -0.40199
 Alpha  occ. eigenvalues --   -0.40074  -0.39940  -0.39840  -0.39594  -0.38939
 Alpha  occ. eigenvalues --   -0.37509  -0.36212  -0.36114  -0.35232  -0.34676
 Alpha  occ. eigenvalues --   -0.34289  -0.33540  -0.30603
 Alpha virt. eigenvalues --   -0.16044  -0.14274  -0.12162  -0.11731  -0.09291
 Alpha virt. eigenvalues --   -0.08830  -0.08305  -0.07526  -0.07132  -0.06772
 Alpha virt. eigenvalues --   -0.06443  -0.05634  -0.05200  -0.04628  -0.04241

 Mulliken charges:
               1
     1  P    0.345890
     2  C   -0.107332
     3  C   -0.066749
     4  C   -0.082578
     5  C   -0.099501
     6  C   -0.088154
     7  C   -0.185512
     8  H    0.175746
     9  H    0.132920
    10  H    0.139957
    11  H    0.133273
    12  H    0.137138
    13  C   -0.601713
    14  P    0.468163
    15  H    0.203955
    16  H    0.205774
    17  Rh  -0.522350
    18  C   -0.029790
    19  C   -0.103659
    20  C   -0.037801
    21  C   -0.097415
    22  C   -0.348561
    23  H    0.176642
    24  H    0.205185
    25  C   -0.227182
    26  C   -0.354209
    27  H    0.187103
    28  C   -0.230831
    29  H    0.193034
    30  H    0.168158
    31  H    0.168095
    32  H    0.170296
    33  H    0.132682
    34  H    0.169213
    35  H    0.167026
    36  H    0.131123
    37  H    0.170124
    38  C   -0.226790
    39  C   -0.232199
    40  C   -0.306834
    41  H    0.167235
    42  C   -0.235614
    43  H    0.145700
    44  H    0.126723
    45  C   -0.249431
    46  H    0.141669
    47  H    0.151077
    48  C   -0.232934
    49  H    0.147183
    50  H    0.119762
    51  H    0.148378
    52  H    0.119597
    53  H    0.150439
    54  H    0.116989
    55  C   -0.127464
    56  C   -0.276595
    57  C   -0.254932
    58  H    0.107393
    59  C   -0.248719
    60  H    0.145417
    61  H    0.129266
    62  C   -0.254476
    63  H    0.123772
    64  H    0.141257
    65  C   -0.228927
    66  H    0.146670
    67  H    0.120259
    68  H    0.149343
    69  H    0.121623
    70  H    0.148331
    71  H    0.117545
    72  C   -0.123918
    73  C   -0.237396
    74  C   -0.295421
    75  H    0.127301
    76  C   -0.242346
    77  H    0.151104
    78  H    0.122544
    79  C   -0.249898
    80  H    0.139454
    81  H    0.131555
    82  C   -0.229713
    83  H    0.147756
    84  H    0.116340
    85  H    0.145965
    86  H    0.120803
    87  H    0.147043
    88  H    0.119951
 Sum of Mulliken charges =   1.00000

 Dipole moment (field-independent basis, Debye):
    X=              0.1875    Y=             -0.3932    Z=              0.7617  Tot=              0.8775
 Quadrupole moment (field-independent basis, Debye-Ang):
   XX=           -199.5319   YY=           -216.3531   ZZ=           -219.5053
   XY=             -3.5312   XZ=              2.1733   YZ=              2.9987

 Summary of Natural Population Analysis:

                                       Natural Population
                Natural  -----------------------------------------------
    Atom  No    Charge         Core      Valence    Rydberg      Total
 -----------------------------------------------------------------------
      P    1    1.11327      9.99669     3.84146    0.04858    13.88673
      C    2   -0.34007      1.99900     4.31836    0.02272     6.34007
      C    3   -0.19663      1.99909     4.18199    0.01555     6.19663
      C    4   -0.18877      1.99920     4.17493    0.01464     6.18877
      C    5   -0.18024      1.99920     4.16643    0.01460     6.18024
      C    6   -0.19066      1.99919     4.17681    0.01465     6.19066
      C    7   -0.20426      1.99909     4.18961    0.01555     6.20426
      H    8    0.21208      0.00000     0.78573    0.00219     0.78792
      H    9    0.22274      0.00000     0.77603    0.00123     0.77726
      H   10    0.22384      0.00000     0.77499    0.00117     0.77616
      H   11    0.22247      0.00000     0.77630    0.00123     0.77753
      H   12    0.20870      0.00000     0.78920    0.00209     0.79130
      C   13   -0.99766      1.99943     4.98141    0.01682     6.99766
      P   14    1.11658      9.99682     3.83952    0.04708    13.88342
      H   15    0.26103      0.00000     0.73707    0.00190     0.73897
      H   16    0.24868      0.00000     0.74872    0.00261     0.75132
     Rh   17   -0.36841     35.98569     9.35720    0.02552    45.36841
      C   18   -0.18685      1.99906     4.16824    0.01955     6.18685
      C   19   -0.15378      1.99907     4.13489    0.01983     6.15378
      C   20   -0.16727      1.99906     4.14847    0.01974     6.16727
      C   21   -0.16795      1.99907     4.14880    0.02008     6.16795
      C   22   -0.42286      1.99936     4.41151    0.01198     6.42286
      H   23    0.22137      0.00000     0.77641    0.00222     0.77863
      H   24    0.22843      0.00000     0.76928    0.00230     0.77157
      C   25   -0.41805      1.99935     4.40605    0.01266     6.41805
      C   26   -0.42434      1.99936     4.41295    0.01203     6.42434
      H   27    0.21960      0.00000     0.77798    0.00242     0.78040
      C   28   -0.41843      1.99935     4.40632    0.01276     6.41843
      H   29    0.22383      0.00000     0.77398    0.00219     0.77617
      H   30    0.22752      0.00000     0.77104    0.00145     0.77248
      H   31    0.21409      0.00000     0.78396    0.00195     0.78591
      H   32    0.23246      0.00000     0.76572    0.00182     0.76754
      H   33    0.21681      0.00000     0.78164    0.00154     0.78319
      H   34    0.21442      0.00000     0.78364    0.00193     0.78558
      H   35    0.22723      0.00000     0.77135    0.00142     0.77277
      H   36    0.21555      0.00000     0.78289    0.00156     0.78445
      H   37    0.23283      0.00000     0.76531    0.00185     0.76717
      C   38   -0.46938      1.99935     4.45279    0.01725     6.46938
      C   39   -0.39248      1.99937     4.38276    0.01035     6.39248
      C   40   -0.39373      1.99937     4.38363    0.01073     6.39373
      H   41    0.22287      0.00000     0.77440    0.00274     0.77713
      C   42   -0.38238      1.99942     4.37328    0.00969     6.38238
      H   43    0.19922      0.00000     0.79843    0.00235     0.80078
      H   44    0.20024      0.00000     0.79775    0.00201     0.79976
      C   45   -0.38313      1.99942     4.37402    0.00969     6.38313
      H   46    0.19599      0.00000     0.80154    0.00248     0.80401
      H   47    0.20648      0.00000     0.79172    0.00181     0.79352
      C   48   -0.38981      1.99942     4.38085    0.00954     6.38981
      H   49    0.21605      0.00000     0.78257    0.00138     0.78395
      H   50    0.19280      0.00000     0.80533    0.00187     0.80720
      H   51    0.21586      0.00000     0.78275    0.00139     0.78414
      H   52    0.19235      0.00000     0.80576    0.00189     0.80765
      H   53    0.21672      0.00000     0.78194    0.00134     0.78328
      H   54    0.19365      0.00000     0.80456    0.00180     0.80635
      C   55   -0.47008      1.99934     4.45235    0.01839     6.47008
      C   56   -0.39061      1.99937     4.38133    0.00991     6.39061
      C   57   -0.39465      1.99937     4.38436    0.01092     6.39465
      H   58    0.21374      0.00000     0.78298    0.00329     0.78626
      C   59   -0.38318      1.99942     4.37407    0.00969     6.38318
      H   60    0.19664      0.00000     0.80092    0.00244     0.80336
      H   61    0.20815      0.00000     0.78998    0.00188     0.79185
      C   62   -0.38271      1.99942     4.37362    0.00967     6.38271
      H   63    0.19550      0.00000     0.80193    0.00256     0.80450
      H   64    0.20208      0.00000     0.79568    0.00225     0.79792
      C   65   -0.38991      1.99942     4.38098    0.00951     6.38991
      H   66    0.21549      0.00000     0.78313    0.00138     0.78451
      H   67    0.19138      0.00000     0.80672    0.00189     0.80862
      H   68    0.21618      0.00000     0.78244    0.00138     0.78382
      H   69    0.19135      0.00000     0.80674    0.00192     0.80865
      H   70    0.21630      0.00000     0.78235    0.00135     0.78370
      H   71    0.19380      0.00000     0.80439    0.00180     0.80620
      C   72   -0.45210      1.99935     4.43453    0.01822     6.45210
      C   73   -0.39806      1.99938     4.38773    0.01095     6.39806
      C   74   -0.39527      1.99937     4.38540    0.01050     6.39527
      H   75    0.21321      0.00000     0.78367    0.00311     0.78679
      C   76   -0.38087      1.99942     4.37182    0.00963     6.38087
      H   77    0.20662      0.00000     0.79111    0.00228     0.79338
      H   78    0.19804      0.00000     0.79963    0.00233     0.80196
      C   79   -0.38182      1.99942     4.37275    0.00965     6.38182
      H   80    0.19840      0.00000     0.79919    0.00241     0.80160
      H   81    0.21080      0.00000     0.78751    0.00168     0.78920
      C   82   -0.39007      1.99942     4.38111    0.00954     6.39007
      H   83    0.21611      0.00000     0.78250    0.00138     0.78389
      H   84    0.18984      0.00000     0.80822    0.00194     0.81016
      H   85    0.21497      0.00000     0.78365    0.00138     0.78503
      H   86    0.19144      0.00000     0.80668    0.00187     0.80856
      H   87    0.21551      0.00000     0.78314    0.00135     0.78449
      H   88    0.19515      0.00000     0.80305    0.00180     0.80485
 =======================================================================
   * Total *    1.00000    121.95613   201.37591    0.66796   324.00000

 Normal termination of Gaussian 16 at Tue Jan 21 16:10:16 2025.
