 Gaussian 16, Revision B.01,
 Gaussian 16:  ES64L-G16RevB.01 20-Dec-2017

 ------------------------------------------
 # nmr=giao b3lyp/genecp pop=nbo scfcyc=200
 ------------------------------------------

 --------
 MB-7_SPE
 --------
 Symbolic Z-matrix:
 Charge =  1 Multiplicity = 1

                         Standard orientation:
 ---------------------------------------------------------------------
 Center     Atomic      Atomic             Coordinates (Angstroms)
 Number     Number       Type             X           Y           Z
 ---------------------------------------------------------------------
      1         15           0        0.601652    2.247990   -0.238630
      2         15           0       -1.090659    0.150780    0.463920
      3          6           0        0.906832    3.181530   -1.801040
      4          1           0        0.639412    2.561220   -2.655770
      5          1           0        1.966132    3.431009   -1.873260
      6          1           0        0.323512    4.103390   -1.822820
      7          6           0       -2.341709   -0.888780   -0.404550
      8          1           0       -2.112149   -1.924500   -0.130430
      9          1           0       -2.092389   -0.810450   -1.467510
     10          6           0       -1.237158    1.912010   -0.158930
     11          1           0       -1.653898    1.913260   -1.166960
     12          1           0       -1.821618    2.595190    0.458330
     13          6           0       -1.587789    0.219600    2.241200
     14          1           0       -2.583369    0.646850    2.360240
     15          1           0       -0.868399    0.821990    2.794670
     16          1           0       -1.579579   -0.787510    2.658600
     17          6           0        0.946212    3.489619    1.083560
     18          1           0        2.008052    3.737539    1.081070
     19          1           0        0.695992    3.073780    2.058820
     20          1           0        0.368192    4.400500    0.918930
     21         45           0        1.225381    0.003049    0.044210
     22          6           0        3.270701   -0.047981   -0.986850
     23          6           0        3.449241    0.249019    0.346910
     24          6           0        1.737951   -2.074451    0.843330
     25          6           0        1.341271   -2.187411   -0.472300
     26          6           0        3.500081   -1.403941   -1.627520
     27          1           0        3.224641    0.788509   -1.675680
     28          1           0        3.567622    1.295629    0.610170
     29          6           0        3.824431   -0.711251    1.448460
     30          6           0        3.171041   -2.106621    1.340240
     31          1           0        0.980071   -2.243281    1.601120
     32          6           0        2.235251   -2.287181   -1.683730
     33          1           0        0.310441   -2.471440   -0.657130
     34          1           0        3.856311   -1.248661   -2.647120
     35          1           0        4.303921   -1.923131   -1.106480
     36          1           0        4.915641   -0.816941    1.489370
     37          1           0        3.535281   -0.254791    2.397640
     38          1           0        3.766221   -2.756291    0.699150
     39          1           0        3.184021   -2.568691    2.328590
     40          1           0        1.641841   -2.005651   -2.556280
     41          1           0        2.522181   -3.334071   -1.843530
     42          6           0       -5.002919   -1.627399   -1.668690
     43          1           0       -4.706059   -2.678629   -1.650920
     44          1           0       -6.094309   -1.594379   -1.627130
     45          1           0       -4.697309   -1.208489   -2.630290
     46          6           0       -4.753588    1.154221   -0.323820
     47          1           0       -4.366458    1.746051    0.508410
     48          1           0       -4.419748    1.616191   -1.255760
     49          1           0       -5.842948    1.236851   -0.295860
     50          6           0       -4.833169   -1.424589    1.415420
     51          1           0       -4.513969   -2.465549    1.507540
     52          1           0       -4.468119   -0.882419    2.289350
     53          1           0       -5.924999   -1.415679    1.461970
     54         14           0       -4.259379   -0.669610   -0.220000
 ---------------------------------------------------------------------

 SCF Done:  E(RB3LYP) =  -1713.18346732     A.U. after   15 cycles

      1  P    Isotropic =   347.0428   Anisotropy =    46.8804

      2  P    Isotropic =   332.8859   Anisotropy =    69.8805

      3  C    Isotropic =   166.3969   Anisotropy =    32.0522

      4  H    Isotropic =    30.5889   Anisotropy =     8.3490

      5  H    Isotropic =    30.6660   Anisotropy =     9.5162

      6  H    Isotropic =    30.4356   Anisotropy =    10.8561

      7  C    Isotropic =   162.0571   Anisotropy =    27.6496

      8  H    Isotropic =    31.1113   Anisotropy =     4.9865

      9  H    Isotropic =    31.0874   Anisotropy =     5.9006

     10  C    Isotropic =   131.9856   Anisotropy =    54.0950

     11  H    Isotropic =    28.8313   Anisotropy =     6.5553

     12  H    Isotropic =    29.0485   Anisotropy =     8.8032

     13  C    Isotropic =   165.9831   Anisotropy =    25.7329

     14  H    Isotropic =    30.2923   Anisotropy =     9.3258

     15  H    Isotropic =    30.4022   Anisotropy =     7.8210

     16  H    Isotropic =    30.5851   Anisotropy =     7.7099

     17  C    Isotropic =   166.2060   Anisotropy =    31.2517

     18  H    Isotropic =    30.5372   Anisotropy =     9.6350

     19  H    Isotropic =    30.4671   Anisotropy =     7.5977

     20  H    Isotropic =    30.4698   Anisotropy =    11.0013

     21  Rh   Isotropic =  -311.1448   Anisotropy =   348.4228

     22  C    Isotropic =    77.5652   Anisotropy =   122.6553

     23  C    Isotropic =    76.7621   Anisotropy =   116.2145

     24  C    Isotropic =    79.1808   Anisotropy =   120.1465

     25  C    Isotropic =    73.6897   Anisotropy =   119.4469

     26  C    Isotropic =   153.8880   Anisotropy =    24.6470

     27  H    Isotropic =    27.0987   Anisotropy =     7.1843

     28  H    Isotropic =    26.6573   Anisotropy =     5.4615

     29  C    Isotropic =   147.9136   Anisotropy =    29.4663

     30  C    Isotropic =   154.0454   Anisotropy =    24.4703

     31  H    Isotropic =    27.1624   Anisotropy =     6.8690

     32  C    Isotropic =   147.7971   Anisotropy =    29.9887

     33  H    Isotropic =    26.5283   Anisotropy =     3.8044

     34  H    Isotropic =    29.8416   Anisotropy =    11.4578

     35  H    Isotropic =    29.7673   Anisotropy =     8.9810

     36  H    Isotropic =    29.1154   Anisotropy =    12.3650

     37  H    Isotropic =    29.2261   Anisotropy =     8.1315

     38  H    Isotropic =    29.7971   Anisotropy =     9.0003

     39  H    Isotropic =    29.8692   Anisotropy =    11.3680

     40  H    Isotropic =    29.1283   Anisotropy =     7.6846

     41  H    Isotropic =    29.1060   Anisotropy =    12.0098

     42  C    Isotropic =   182.6976   Anisotropy =    13.9851

     43  H    Isotropic =    31.7098   Anisotropy =     8.9391

     44  H    Isotropic =    31.6086   Anisotropy =    11.3193

     45  H    Isotropic =    31.8204   Anisotropy =     8.6894

     46  C    Isotropic =   184.2905   Anisotropy =     4.6941

     47  H    Isotropic =    32.0790   Anisotropy =     6.7587

     48  H    Isotropic =    31.9260   Anisotropy =     7.4836

     49  H    Isotropic =    31.4975   Anisotropy =    11.5850

     50  C    Isotropic =   182.5513   Anisotropy =    11.3942

     51  H    Isotropic =    31.7619   Anisotropy =     8.6362

     52  H    Isotropic =    31.8770   Anisotropy =     7.1745

     53  H    Isotropic =    31.5426   Anisotropy =    11.4659

     54  Si   Isotropic =   340.4236   Anisotropy =     5.8680

 The electronic state is 1-A.
 Alpha  occ. eigenvalues --  -77.24734 -77.24677 -66.23438 -10.31315 -10.30017
 Alpha  occ. eigenvalues --  -10.29999 -10.29964 -10.29955 -10.29834 -10.29812
 Alpha  occ. eigenvalues --  -10.29766 -10.28634 -10.28286 -10.28267 -10.28040
 Alpha  occ. eigenvalues --  -10.28030 -10.24895 -10.24423 -10.24089  -6.70768
 Alpha  occ. eigenvalues --   -6.70647  -5.37287  -4.87064  -4.86980  -4.86950
 Alpha  occ. eigenvalues --   -4.86857  -4.86654  -4.86542  -3.73257  -3.73120
 Alpha  occ. eigenvalues --   -3.73104  -3.32393  -2.09298  -2.08632  -2.05829
 Alpha  occ. eigenvalues --   -0.95275  -0.91499  -0.90058  -0.88786  -0.87843
 Alpha  occ. eigenvalues --   -0.82675  -0.82574  -0.82431  -0.81167  -0.80049
 Alpha  occ. eigenvalues --   -0.78639  -0.77895  -0.77387  -0.71355  -0.68036
 Alpha  occ. eigenvalues --   -0.67505  -0.66708  -0.63282  -0.60935  -0.58157
 Alpha  occ. eigenvalues --   -0.57994  -0.57406  -0.57005  -0.56743  -0.56029
 Alpha  occ. eigenvalues --   -0.55454  -0.54988  -0.54375  -0.53584  -0.53375
 Alpha  occ. eigenvalues --   -0.53344  -0.53208  -0.52681  -0.51818  -0.51445
 Alpha  occ. eigenvalues --   -0.50752  -0.50206  -0.49076  -0.48811  -0.48685
 Alpha  occ. eigenvalues --   -0.48545  -0.48026  -0.47485  -0.47299  -0.46749
 Alpha  occ. eigenvalues --   -0.46686  -0.44726  -0.44423  -0.44165  -0.43998
 Alpha  occ. eigenvalues --   -0.42768  -0.41072  -0.40389  -0.40090  -0.37681
 Alpha  occ. eigenvalues --   -0.37088  -0.35808  -0.35522  -0.34689  -0.31589
 Alpha virt. eigenvalues --   -0.17140  -0.14585  -0.10414  -0.09907  -0.09526
 Alpha virt. eigenvalues --   -0.08864  -0.07991  -0.07306  -0.06937  -0.06094
 Alpha virt. eigenvalues --   -0.05903  -0.05408  -0.05097  -0.04739  -0.04312

 Mulliken charges:
               1
     1  P    0.350624
     2  P    0.397018
     3  C   -0.418806
     4  H    0.159926
     5  H    0.163034
     6  H    0.164586
     7  C   -0.514486
     8  H    0.156301
     9  H    0.161530
    10  C   -0.559845
    11  H    0.202232
    12  H    0.210186
    13  C   -0.452910
    14  H    0.171569
    15  H    0.158990
    16  H    0.166704
    17  C   -0.426110
    18  H    0.163864
    19  H    0.153041
    20  H    0.163261
    21  Rh  -0.512223
    22  C   -0.017793
    23  C   -0.085701
    24  C   -0.013503
    25  C   -0.095920
    26  C   -0.350669
    27  H    0.174663
    28  H    0.169217
    29  C   -0.216511
    30  C   -0.346514
    31  H    0.168091
    32  C   -0.218179
    33  H    0.181945
    34  H    0.171092
    35  H    0.168752
    36  H    0.173472
    37  H    0.132820
    38  H    0.167704
    39  H    0.171294
    40  H    0.131891
    41  H    0.173638
    42  C   -0.515474
    43  H    0.138881
    44  H    0.149884
    45  H    0.135422
    46  C   -0.532054
    47  H    0.117684
    48  H    0.130471
    49  H    0.161116
    50  C   -0.544049
    51  H    0.138953
    52  H    0.131298
    53  H    0.153673
    54  Si   0.635920
 Sum of Mulliken charges =   1.00000

 Dipole moment (field-independent basis, Debye):
    X=              0.2032    Y=              2.4109    Z=              0.0982  Tot=              2.4215
 Quadrupole moment (field-independent basis, Debye-Ang):
   XX=           -120.2439   YY=           -133.6474   ZZ=           -147.8816
   XY=              0.1042   XZ=             -1.0948   YZ=             -1.0172

 Summary of Natural Population Analysis:

                                       Natural Population
                Natural  -----------------------------------------------
    Atom  No    Charge         Core      Valence    Rydberg      Total
 -----------------------------------------------------------------------
      P    1    1.12599      9.99678     3.82945    0.04777    13.87401
      P    2    1.15252      9.99676     3.79959    0.05112    13.84748
      C    3   -0.89876      1.99942     4.89017    0.00917     6.89876
      H    4    0.24360      0.00000     0.75530    0.00110     0.75640
      H    5    0.24361      0.00000     0.75532    0.00106     0.75639
      H    6    0.23973      0.00000     0.75852    0.00175     0.76027
      C    7   -1.15573      1.99938     5.14244    0.01390     7.15573
      H    8    0.25514      0.00000     0.74354    0.00132     0.74486
      H    9    0.25647      0.00000     0.74216    0.00137     0.74353
      C   10   -0.98962      1.99946     4.97321    0.01696     6.98962
      H   11    0.26050      0.00000     0.73802    0.00149     0.73950
      H   12    0.25377      0.00000     0.74409    0.00213     0.74623
      C   13   -0.90267      1.99942     4.89342    0.00984     6.90267
      H   14    0.23505      0.00000     0.76304    0.00191     0.76495
      H   15    0.24064      0.00000     0.75816    0.00120     0.75936
      H   16    0.24460      0.00000     0.75425    0.00115     0.75540
      C   17   -0.89771      1.99943     4.88877    0.00952     6.89771
      H   18    0.24352      0.00000     0.75541    0.00107     0.75648
      H   19    0.24018      0.00000     0.75867    0.00115     0.75982
      H   20    0.23797      0.00000     0.76017    0.00186     0.76203
     Rh   21   -0.46673     35.98545     9.45564    0.02564    45.46673
      C   22   -0.16244      1.99904     4.14352    0.01988     6.16244
      C   23   -0.15592      1.99904     4.13634    0.02053     6.15592
      C   24   -0.17118      1.99905     4.15218    0.01996     6.17118
      C   25   -0.14905      1.99904     4.12936    0.02064     6.14905
      C   26   -0.42318      1.99937     4.41180    0.01202     6.42318
      H   27    0.22216      0.00000     0.77611    0.00173     0.77784
      H   28    0.22189      0.00000     0.77638    0.00173     0.77811
      C   29   -0.42246      1.99936     4.41065    0.01245     6.42246
      C   30   -0.42257      1.99937     4.41125    0.01195     6.42257
      H   31    0.22581      0.00000     0.77265    0.00154     0.77419
      C   32   -0.42233      1.99936     4.41051    0.01247     6.42233
      H   33    0.22251      0.00000     0.77559    0.00190     0.77749
      H   34    0.23006      0.00000     0.76851    0.00142     0.76994
      H   35    0.21244      0.00000     0.78551    0.00205     0.78756
      H   36    0.23572      0.00000     0.76252    0.00176     0.76428
      H   37    0.21899      0.00000     0.77950    0.00151     0.78101
      H   38    0.21231      0.00000     0.78566    0.00203     0.78769
      H   39    0.23023      0.00000     0.76836    0.00141     0.76977
      H   40    0.21867      0.00000     0.77981    0.00152     0.78133
      H   41    0.23521      0.00000     0.76301    0.00178     0.76479
      C   42   -1.08046      1.99945     5.07322    0.00779     7.08046
      H   43    0.23633      0.00000     0.76276    0.00091     0.76367
      H   44    0.24315      0.00000     0.75597    0.00088     0.75685
      H   45    0.23336      0.00000     0.76571    0.00093     0.76664
      C   46   -1.08917      1.99945     5.08129    0.00842     7.08917
      H   47    0.22375      0.00000     0.77497    0.00127     0.77625
      H   48    0.23064      0.00000     0.76829    0.00107     0.76936
      H   49    0.24758      0.00000     0.75155    0.00087     0.75242
      C   50   -1.08653      1.99945     5.07893    0.00814     7.08653
      H   51    0.23535      0.00000     0.76372    0.00093     0.76465
      H   52    0.22765      0.00000     0.77126    0.00109     0.77235
      H   53    0.24507      0.00000     0.75406    0.00087     0.75493
     Si   54    1.61432      9.99838     2.36182    0.02547    12.38568
 =======================================================================
   * Total *    1.00000     97.96646   119.62213    0.41142   218.00000

 Normal termination of Gaussian 16 at Tue Jan 21 01:18:10 2025.
