 Gaussian 16, Revision B.01,
 Gaussian 16:  ES64L-G16RevB.01 20-Dec-2017

 ------------------------------------------
 # nmr=giao b3lyp/genecp pop=nbo scfcyc=200
 ------------------------------------------

 ---------
 MB-77_SPE
 ---------
 Symbolic Z-matrix:
 Charge =  1 Multiplicity = 1

                         Standard orientation:
 ---------------------------------------------------------------------
 Center     Atomic      Atomic             Coordinates (Angstroms)
 Number     Number       Type             X           Y           Z
 ---------------------------------------------------------------------
      1         15           0       -1.862019    0.419561   -0.549249
      2         15           0        0.915591    0.776789   -0.663919
      3          6           0       -0.589999    1.152520   -1.720659
      4          1           0       -0.554139    0.606630   -2.664039
      5          1           0       -0.752688    2.207680   -1.938469
      6          6           0       -2.860389    1.847131    0.040321
      7          6           0       -3.524718    2.679521   -0.868889
      8          1           0       -3.480388    2.477131   -1.932489
      9          6           0       -4.258708    3.766392   -0.412139
     10          1           0       -4.771107    4.405142   -1.120529
     11          6           0       -4.338017    4.032472    0.953451
     12          1           0       -4.912317    4.879732    1.306411
     13          6           0       -3.680118    3.210911    1.860901
     14          1           0       -3.738518    3.416821    2.922251
     15          6           0       -2.941028    2.121971    1.406471
     16          1           0       -2.417689    1.491101    2.113351
     17          6           0       -3.013540   -0.621059   -1.544749
     18          6           0       -2.500340   -1.514649   -2.491489
     19          1           0       -1.435390   -1.562390   -2.684869
     20          6           0       -3.349761   -2.359919   -3.194429
     21          1           0       -2.942041   -3.038889   -3.932829
     22          6           0       -4.719711   -2.336218   -2.948189
     23          1           0       -5.380861   -2.995968   -3.495479
     24          6           0       -5.234740   -1.465128   -1.995239
     25          1           0       -6.298980   -1.443687   -1.797029
     26          6           0       -4.388440   -0.611548   -1.293699
     27          1           0       -4.806659    0.066632   -0.561699
     28          6           0        0.773562    3.299259    0.664341
     29          1           0        1.295633    4.227659    0.901441
     30          1           0        0.530682    2.802319    1.604731
     31          1           0       -0.164608    3.567290    0.176351
     32         45           0       -0.263930   -0.561900    0.878301
     33          6           0        1.432630   -1.897581    1.631161
     34          6           0        1.303890   -0.819591    2.479561
     35          6           0       -1.541170   -1.499350    2.522201
     36          6           0       -1.446111   -2.382520    1.466421
     37          6           0        0.916219   -3.297071    1.904371
     38          1           0        2.159010   -1.805461    0.830551
     39          1           0        1.971731    0.020489    2.314911
     40          6           0        0.569550   -0.785001    3.797181
     41          6           0       -0.754920   -1.580490    3.818141
     42          1           0       -2.428180   -0.875859    2.553491
     43          6           0       -0.500941   -3.552440    1.347871
     44          1           0       -2.271481   -2.403519    0.762391
     45          1           0        1.599599   -4.014111    1.445821
     46          1           0        0.946529   -3.498381    2.974941
     47          1           0        1.228220   -1.143451    4.598121
     48          1           0        0.361221    0.261089    4.032641
     49          1           0       -0.566241   -2.624690    4.066671
     50          1           0       -1.376980   -1.190220    4.625361
     51          1           0       -0.428401   -3.811990    0.289591
     52          1           0       -0.940122   -4.429170    1.840551
     53          6           0        1.659472    2.422479   -0.220719
     54          1           0        1.906192    2.929689   -1.157289
     55          1           0        2.604962    2.206338    0.278401
     56          7           0        3.304850   -0.574292   -1.327079
     57          6           0        4.319891    0.379307   -0.937379
     58          6           0        4.891971    0.257737    0.328751
     59          6           0        4.778101    1.380297   -1.796899
     60          6           0        5.897031    1.129707    0.736301
     61          1           0        4.544810   -0.529143    0.986911
     62          6           0        5.777452    2.256747   -1.385529
     63          1           0        4.366601    1.476287   -2.794479
     64          6           0        6.338232    2.135446   -0.117839
     65          1           0        6.334851    1.023156    1.721111
     66          1           0        6.126942    3.027557   -2.061329
     67          1           0        7.118652    2.815586    0.198851
     68          6           0        3.866500   -1.687022   -2.134959
     69          1           0        3.982960   -1.381342   -3.185749
     70          1           0        4.870170   -1.869123   -1.752009
     71          6           0        3.061359   -2.977622   -2.051109
     72          1           0        3.000269   -3.332532   -1.021319
     73          1           0        2.045379   -2.868511   -2.436319
     74          1           0        3.548409   -3.750822   -2.648319
     75          6           0        2.100621   -0.003271   -1.902239
     76          1           0        2.282331    0.740328   -2.693569
     77          1           0        1.517970   -0.807601   -2.351199
 ---------------------------------------------------------------------

 SCF Done:  E(RB3LYP) =  -2092.47683014     A.U. after   16 cycles

      1  P    Isotropic =   320.7156   Anisotropy =   109.6582

      2  P    Isotropic =   321.5406   Anisotropy =    89.6276

      3  C    Isotropic =   132.6410   Anisotropy =    56.6489

      4  H    Isotropic =    28.2862   Anisotropy =     4.5423

      5  H    Isotropic =    28.7477   Anisotropy =     7.8637

      6  C    Isotropic =    46.0250   Anisotropy =   173.1179

      7  C    Isotropic =    46.4600   Anisotropy =   187.8007

      8  H    Isotropic =    24.4416   Anisotropy =    11.6056

      9  C    Isotropic =    47.5769   Anisotropy =   191.6443

     10  H    Isotropic =    24.0882   Anisotropy =     5.8007

     11  C    Isotropic =    44.5246   Anisotropy =   199.3279

     12  H    Isotropic =    23.9407   Anisotropy =     3.8009

     13  C    Isotropic =    49.5930   Anisotropy =   187.8024

     14  H    Isotropic =    24.1042   Anisotropy =     6.8775

     15  C    Isotropic =    41.0458   Anisotropy =   182.1084

     16  H    Isotropic =    23.5851   Anisotropy =    10.0160

     17  C    Isotropic =    42.3023   Anisotropy =   170.1506

     18  C    Isotropic =    49.9533   Anisotropy =   184.2451

     19  H    Isotropic =    24.0136   Anisotropy =    10.1040

     20  C    Isotropic =    48.9558   Anisotropy =   189.1031

     21  H    Isotropic =    23.9880   Anisotropy =     6.7705

     22  C    Isotropic =    46.6482   Anisotropy =   195.8226

     23  H    Isotropic =    24.0854   Anisotropy =     3.8343

     24  C    Isotropic =    48.6776   Anisotropy =   190.3913

     25  H    Isotropic =    24.3488   Anisotropy =     6.3471

     26  C    Isotropic =    47.2466   Anisotropy =   190.5054

     27  H    Isotropic =    25.0844   Anisotropy =    12.5622

     28  C    Isotropic =   173.2325   Anisotropy =    17.0543

     29  H    Isotropic =    31.0525   Anisotropy =    11.8009

     30  H    Isotropic =    31.1322   Anisotropy =     5.9688

     31  H    Isotropic =    31.9554   Anisotropy =     9.6734

     32  Rh   Isotropic =  -313.3828   Anisotropy =   358.8847

     33  C    Isotropic =    75.5638   Anisotropy =   130.9128

     34  C    Isotropic =    77.0332   Anisotropy =   116.5835

     35  C    Isotropic =    81.2400   Anisotropy =   117.2962

     36  C    Isotropic =    71.9237   Anisotropy =   124.3851

     37  C    Isotropic =   153.5919   Anisotropy =    24.3590

     38  H    Isotropic =    25.3608   Anisotropy =     7.7777

     39  H    Isotropic =    26.2462   Anisotropy =     4.6198

     40  C    Isotropic =   147.3573   Anisotropy =    30.8390

     41  C    Isotropic =   154.1327   Anisotropy =    24.7260

     42  H    Isotropic =    27.0499   Anisotropy =     7.0466

     43  C    Isotropic =   148.0191   Anisotropy =    28.3924

     44  H    Isotropic =    27.0985   Anisotropy =     3.9018

     45  H    Isotropic =    29.6983   Anisotropy =    10.1723

     46  H    Isotropic =    29.6659   Anisotropy =     9.3949

     47  H    Isotropic =    28.9932   Anisotropy =    12.4537

     48  H    Isotropic =    29.0659   Anisotropy =     7.8933

     49  H    Isotropic =    29.7484   Anisotropy =     9.3982

     50  H    Isotropic =    29.7869   Anisotropy =    11.9680

     51  H    Isotropic =    29.2603   Anisotropy =     6.8599

     52  H    Isotropic =    29.2647   Anisotropy =    12.1682

     53  C    Isotropic =   154.8565   Anisotropy =    20.7928

     54  H    Isotropic =    31.0198   Anisotropy =     8.2058

     55  H    Isotropic =    31.2885   Anisotropy =    13.7510

     56  N    Isotropic =   185.9317   Anisotropy =    52.1976

     57  C    Isotropic =    24.0991   Anisotropy =   168.8933

     58  C    Isotropic =    50.9567   Anisotropy =   158.9140

     59  C    Isotropic =    56.6597   Anisotropy =   187.9586

     60  C    Isotropic =    47.8650   Anisotropy =   189.0470

     61  H    Isotropic =    24.7404   Anisotropy =     7.8405

     62  C    Isotropic =    48.4881   Anisotropy =   189.5202

     63  H    Isotropic =    24.4631   Anisotropy =    10.4651

     64  C    Isotropic =    49.9142   Anisotropy =   190.1430

     65  H    Isotropic =    24.3031   Anisotropy =     6.1957

     66  H    Isotropic =    24.2815   Anisotropy =     5.4652

     67  H    Isotropic =    24.3305   Anisotropy =     3.3432

     68  C    Isotropic =   123.7097   Anisotropy =    63.0552

     69  H    Isotropic =    28.9405   Anisotropy =     8.1519

     70  H    Isotropic =    29.1495   Anisotropy =     6.8411

     71  C    Isotropic =   168.6405   Anisotropy =    24.8117

     72  H    Isotropic =    30.5325   Anisotropy =     6.9074

     73  H    Isotropic =    30.3460   Anisotropy =     4.8814

     74  H    Isotropic =    30.4694   Anisotropy =    11.8873

     75  C    Isotropic =   123.8270   Anisotropy =    47.9803

     76  H    Isotropic =    27.9301   Anisotropy =     5.8254

     77  H    Isotropic =    28.2137   Anisotropy =     4.4101

 The electronic state is 1-A.
 Alpha  occ. eigenvalues --  -77.23916 -77.23015 -14.42150 -10.32029 -10.30301
 Alpha  occ. eigenvalues --  -10.29823 -10.29753 -10.29744 -10.29236 -10.29010
 Alpha  occ. eigenvalues --  -10.28925 -10.28893 -10.28710 -10.28630 -10.28610
 Alpha  occ. eigenvalues --  -10.28601 -10.28586 -10.28207 -10.27923 -10.27845
 Alpha  occ. eigenvalues --  -10.27797 -10.27717 -10.27546 -10.27489 -10.27488
 Alpha  occ. eigenvalues --  -10.27442 -10.27262 -10.27221 -10.26607 -10.26525
 Alpha  occ. eigenvalues --  -10.26355 -10.26314 -10.26240 -10.26001 -10.25367
 Alpha  occ. eigenvalues --   -6.69884  -6.69071  -4.86171  -4.86110  -4.85779
 Alpha  occ. eigenvalues --   -4.85373  -4.85248  -4.84968  -3.31503  -2.08404
 Alpha  occ. eigenvalues --   -2.07731  -2.04957  -1.03646  -0.96993  -0.96280
 Alpha  occ. eigenvalues --   -0.94349  -0.94194  -0.90241  -0.89065  -0.87924
 Alpha  occ. eigenvalues --   -0.87863  -0.85570  -0.85528  -0.85385  -0.85068
 Alpha  occ. eigenvalues --   -0.84907  -0.83926  -0.83190  -0.80248  -0.78776
 Alpha  occ. eigenvalues --   -0.77728  -0.74863  -0.73742  -0.71466  -0.71192
 Alpha  occ. eigenvalues --   -0.71047  -0.70517  -0.70427  -0.69967  -0.67772
 Alpha  occ. eigenvalues --   -0.66991  -0.65747  -0.65679  -0.62718  -0.62332
 Alpha  occ. eigenvalues --   -0.62046  -0.61039  -0.59963  -0.58196  -0.57535
 Alpha  occ. eigenvalues --   -0.57228  -0.57040  -0.56381  -0.56242  -0.56123
 Alpha  occ. eigenvalues --   -0.55780  -0.55556  -0.55168  -0.54887  -0.54272
 Alpha  occ. eigenvalues --   -0.53588  -0.53525  -0.53324  -0.52995  -0.52822
 Alpha  occ. eigenvalues --   -0.52521  -0.52402  -0.51900  -0.51458  -0.51000
 Alpha  occ. eigenvalues --   -0.50605  -0.49238  -0.48654  -0.48455  -0.48033
 Alpha  occ. eigenvalues --   -0.47676  -0.47468  -0.47126  -0.46774  -0.46418
 Alpha  occ. eigenvalues --   -0.46052  -0.45933  -0.45590  -0.45464  -0.45327
 Alpha  occ. eigenvalues --   -0.45062  -0.43932  -0.43878  -0.43715  -0.43529
 Alpha  occ. eigenvalues --   -0.43259  -0.43098  -0.43005  -0.42367  -0.41175
 Alpha  occ. eigenvalues --   -0.37923  -0.36756  -0.36501  -0.36433  -0.35962
 Alpha  occ. eigenvalues --   -0.35576  -0.34932  -0.34729  -0.34678  -0.34506
 Alpha  occ. eigenvalues --   -0.33737  -0.32080  -0.30703
 Alpha virt. eigenvalues --   -0.16427  -0.14606  -0.13719  -0.12262  -0.11877
 Alpha virt. eigenvalues --   -0.10959  -0.10444  -0.10340  -0.09243  -0.07883
 Alpha virt. eigenvalues --   -0.07544  -0.07411  -0.06753  -0.06228  -0.05612

 Mulliken charges:
               1
     1  P    0.372817
     2  P    0.471262
     3  C   -0.643560
     4  H    0.209559
     5  H    0.215636
     6  C   -0.272029
     7  C   -0.081074
     8  H    0.150223
     9  C   -0.083629
    10  H    0.137700
    11  C   -0.094287
    12  H    0.141726
    13  C   -0.111545
    14  H    0.132453
    15  C   -0.016129
    16  H    0.138383
    17  C   -0.187809
    18  C   -0.061629
    19  H    0.127200
    20  C   -0.108204
    21  H    0.130995
    22  C   -0.094985
    23  H    0.140777
    24  C   -0.100998
    25  H    0.136174
    26  C   -0.057483
    27  H    0.159306
    28  C   -0.384034
    29  H    0.162660
    30  H    0.127397
    31  H    0.140161
    32  Rh  -0.517971
    33  C   -0.031072
    34  C   -0.082058
    35  C   -0.018259
    36  C   -0.097967
    37  C   -0.373931
    38  H    0.221336
    39  H    0.177700
    40  C   -0.224657
    41  C   -0.350068
    42  H    0.178522
    43  C   -0.219771
    44  H    0.208903
    45  H    0.168496
    46  H    0.168064
    47  H    0.172580
    48  H    0.130356
    49  H    0.167285
    50  H    0.167542
    51  H    0.131254
    52  H    0.171560
    53  C   -0.293647
    54  H    0.150898
    55  H    0.183262
    56  N   -0.158403
    57  C   -0.132825
    58  C   -0.115121
    59  C   -0.096957
    60  C   -0.103186
    61  H    0.125354
    62  C   -0.102200
    63  H    0.120611
    64  C   -0.088916
    65  H    0.126170
    66  H    0.128758
    67  H    0.132517
    68  C   -0.148340
    69  H    0.121433
    70  H    0.153629
    71  C   -0.339680
    72  H    0.120065
    73  H    0.099052
    74  H    0.152639
    75  C   -0.282878
    76  H    0.162623
    77  H    0.140264
 Sum of Mulliken charges =   1.00000

 Dipole moment (field-independent basis, Debye):
    X=             -1.3118    Y=              0.8440    Z=             -0.8155  Tot=              1.7602
 Quadrupole moment (field-independent basis, Debye-Ang):
   XX=           -184.5529   YY=           -205.8877   ZZ=           -208.6438
   XY=             -1.4855   XZ=              1.4913   YZ=              1.5439

 Summary of Natural Population Analysis:

                                       Natural Population
                Natural  -----------------------------------------------
    Atom  No    Charge         Core      Valence    Rydberg      Total
 -----------------------------------------------------------------------
      P    1    1.11928      9.99650     3.83280    0.05143    13.88072
      P    2    1.09667      9.99684     3.85937    0.04712    13.90333
      C    3   -0.98390      1.99943     4.96652    0.01794     6.98390
      H    4    0.25707      0.00000     0.74116    0.00177     0.74293
      H    5    0.25898      0.00000     0.73913    0.00188     0.74102
      C    6   -0.34954      1.99900     4.32614    0.02440     6.34954
      C    7   -0.19296      1.99909     4.17784    0.01602     6.19296
      H    8    0.21750      0.00000     0.78054    0.00196     0.78250
      C    9   -0.19239      1.99920     4.17853    0.01465     6.19239
      H   10    0.22427      0.00000     0.77450    0.00123     0.77573
      C   11   -0.17369      1.99921     4.15993    0.01456     6.17369
      H   12    0.22401      0.00000     0.77482    0.00117     0.77599
      C   13   -0.19664      1.99920     4.18284    0.01460     6.19664
      H   14    0.22234      0.00000     0.77644    0.00122     0.77766
      C   15   -0.18186      1.99909     4.16720    0.01557     6.18186
      H   16    0.22020      0.00000     0.77791    0.00189     0.77980
      C   17   -0.33953      1.99900     4.31685    0.02369     6.33953
      C   18   -0.19884      1.99910     4.18423    0.01551     6.19884
      H   19    0.20410      0.00000     0.79367    0.00223     0.79590
      C   20   -0.19114      1.99920     4.17720    0.01474     6.19114
      H   21    0.22123      0.00000     0.77754    0.00123     0.77877
      C   22   -0.18106      1.99920     4.16713    0.01473     6.18106
      H   23    0.22360      0.00000     0.77523    0.00117     0.77640
      C   24   -0.18785      1.99920     4.17394    0.01470     6.18785
      H   25    0.22349      0.00000     0.77530    0.00121     0.77651
      C   26   -0.19578      1.99910     4.18137    0.01531     6.19578
      H   27    0.22347      0.00000     0.77479    0.00173     0.77653
      C   28   -0.59302      1.99945     4.58569    0.00788     6.59302
      H   29    0.22614      0.00000     0.77258    0.00128     0.77386
      H   30    0.21255      0.00000     0.78615    0.00130     0.78745
      H   31    0.20466      0.00000     0.79359    0.00175     0.79534
     Rh   32   -0.40875     35.98597     9.39783    0.02495    45.40875
      C   33   -0.17439      1.99907     4.15521    0.02011     6.17439
      C   34   -0.16883      1.99908     4.14983    0.01992     6.16883
      C   35   -0.18783      1.99907     4.16891    0.01984     6.18783
      C   36   -0.15155      1.99909     4.13261    0.01986     6.15155
      C   37   -0.42519      1.99936     4.41385    0.01197     6.42519
      H   38    0.24246      0.00000     0.75484    0.00270     0.75754
      H   39    0.22629      0.00000     0.77169    0.00202     0.77371
      C   40   -0.41898      1.99935     4.40687    0.01275     6.41898
      C   41   -0.42297      1.99936     4.41172    0.01189     6.42297
      H   42    0.22350      0.00000     0.77456    0.00195     0.77650
      C   43   -0.41813      1.99935     4.40613    0.01266     6.41813
      H   44    0.23097      0.00000     0.76709    0.00194     0.76903
      H   45    0.22650      0.00000     0.77192    0.00157     0.77350
      H   46    0.21434      0.00000     0.78375    0.00191     0.78566
      H   47    0.23335      0.00000     0.76485    0.00180     0.76665
      H   48    0.21515      0.00000     0.78331    0.00154     0.78485
      H   49    0.21496      0.00000     0.78313    0.00191     0.78504
      H   50    0.22752      0.00000     0.77106    0.00143     0.77248
      H   51    0.21678      0.00000     0.78157    0.00165     0.78322
      H   52    0.23371      0.00000     0.76448    0.00181     0.76629
      C   53   -0.67120      1.99941     4.65942    0.01236     6.67120
      H   54    0.22663      0.00000     0.77112    0.00225     0.77337
      H   55    0.24495      0.00000     0.75325    0.00181     0.75505
      N   56   -0.46356      1.99948     5.43725    0.02683     7.46356
      C   57    0.12263      1.99891     3.85805    0.02041     5.87737
      C   58   -0.22159      1.99906     4.20690    0.01562     6.22159
      C   59   -0.23951      1.99905     4.22619    0.01427     6.23951
      C   60   -0.19278      1.99921     4.17871    0.01487     6.19278
      H   61    0.21574      0.00000     0.78233    0.00193     0.78426
      C   62   -0.18942      1.99922     4.17499    0.01522     6.18942
      H   63    0.20830      0.00000     0.78961    0.00208     0.79170
      C   64   -0.20154      1.99920     4.18743    0.01490     6.20154
      H   65    0.21839      0.00000     0.78043    0.00119     0.78161
      H   66    0.21834      0.00000     0.78043    0.00123     0.78166
      H   67    0.22046      0.00000     0.77837    0.00117     0.77954
      C   68   -0.19950      1.99935     4.18814    0.01201     6.19950
      H   69    0.16914      0.00000     0.82732    0.00354     0.83086
      H   70    0.21105      0.00000     0.78726    0.00169     0.78895
      C   71   -0.59683      1.99945     4.59099    0.00639     6.59683
      H   72    0.20328      0.00000     0.79503    0.00170     0.79672
      H   73    0.19107      0.00000     0.80748    0.00145     0.80893
      H   74    0.22326      0.00000     0.77564    0.00110     0.77674
      C   75   -0.46564      1.99930     4.44815    0.01820     6.46564
      H   76    0.19328      0.00000     0.80233    0.00439     0.80672
      H   77    0.22476      0.00000     0.77277    0.00247     0.77524
 =======================================================================
   * Total *    1.00000    121.95315   191.32572    0.72113   314.00000

 Normal termination of Gaussian 16 at Tue Jan 21 16:16:15 2025.
