 Gaussian 16, Revision B.01,
 Gaussian 16:  ES64L-G16RevB.01 20-Dec-2017

 ------------------------------------------
 # nmr=giao b3lyp/genecp pop=nbo scfcyc=200
 ------------------------------------------

 ---------
 MB-79_SPE
 ---------
 Symbolic Z-matrix:
 Charge =  1 Multiplicity = 1

                         Standard orientation:
 ---------------------------------------------------------------------
 Center     Atomic      Atomic             Coordinates (Angstroms)
 Number     Number       Type             X           Y           Z
 ---------------------------------------------------------------------
      1         15           0       -1.337689    0.161341    0.472370
      2         15           0        1.422681    0.549542    0.571140
      3          6           0       -2.698569   -0.604429    1.423060
      4          6           0       -3.890789    0.123980    1.250760
      5          6           0       -3.746179    1.309791    0.386500
      6          6           0       -2.441699    1.500551   -0.109010
      7          6           0       -0.071159    0.880652    1.657960
      8          1           0       -0.230220    1.919722    1.943480
      9          1           0       -0.034299    0.263542    2.555990
     10          6           0       -2.661518   -1.753689    2.201960
     11          1           0       -1.743958   -2.318739    2.316400
     12          6           0       -3.824918   -2.178649    2.838420
     13          1           0       -3.810208   -3.068809    3.454060
     14          6           0       -5.009649   -1.462820    2.676840
     15          1           0       -5.911618   -1.801910    3.170420
     16          6           0       -5.049629   -0.318630    1.886600
     17          1           0       -5.980839    0.221490    1.772080
     18          6           0       -2.136690    2.570421   -0.940460
     19          1           0       -1.133970    2.707251   -1.326140
     20          6           0       -3.140780    3.476351   -1.273140
     21          1           0       -2.915990    4.318491   -1.914960
     22          6           0       -4.434270    3.297240   -0.787180
     23          1           0       -5.210210    4.003210   -1.054960
     24          6           0       -4.742220    2.220020    0.037280
     25          1           0       -5.753430    2.096860    0.403810
     26          6           0        2.818051    0.031492    1.656390
     27          6           0        2.606371   -0.952598    2.628830
     28          1           0        1.620011   -1.374048    2.782140
     29          6           0        3.661751   -1.406097    3.410020
     30          1           0        3.484552   -2.158947    4.167760
     31          6           0        4.942881   -0.896217    3.217530
     32          1           0        5.764871   -1.251307    3.825930
     33          6           0        5.163661    0.067403    2.240350
     34          1           0        6.158361    0.465513    2.084320
     35          6           0        4.108511    0.530563    1.459910
     36          1           0        4.295071    1.286903    0.709100
     37          6           0        1.888480    2.187042   -0.121530
     38          6           0        2.149550    3.275792    0.718970
     39          1           0        2.101470    3.163102    1.795570
     40          6           0        2.485110    4.509942    0.177750
     41          1           0        2.686759    5.347582    0.833470
     42          6           0        2.563660    4.669762   -1.204310
     43          1           0        2.827199    5.633022   -1.622590
     44          6           0        2.304790    3.593362   -2.044680
     45          1           0        2.365370    3.714972   -3.118870
     46          6           0        1.966310    2.354872   -1.505800
     47          1           0        1.755771    1.519262   -2.161370
     48         45           0        0.261471   -0.958148   -0.828100
     49          6           0       -0.971808   -2.766089   -1.491950
     50          6           0       -1.058038   -1.784449   -2.455940
     51          6           0        1.864302   -1.695128   -2.277740
     52          6           0        1.915752   -2.456268   -1.128400
     53          6           0       -0.093048   -4.000988   -1.564780
     54          1           0       -1.770478   -2.803689   -0.759480
     55          1           0       -1.931069   -1.139499   -2.428660
     56          6           0       -0.252218   -1.689518   -3.727830
     57          6           0        1.227272   -2.112998   -3.590140
     58          1           0        2.556971   -0.862238   -2.338760
     59          6           0        1.294402   -3.814338   -0.914170
     60          1           0        2.658732   -2.182498   -0.386550
     61          1           0       -0.604998   -4.819479   -1.056090
     62          1           0        0.012592   -4.314258   -2.603080
     63          1           0       -0.734638   -2.282759   -4.514600
     64          1           0       -0.297299   -0.653308   -4.070360
     65          1           0        1.327922   -3.190318   -3.719450
     66          1           0        1.791041   -1.660768   -4.407700
     67          1           0        1.208872   -3.971768    0.163150
     68          1           0        1.980542   -4.591148   -1.274610
 ---------------------------------------------------------------------

 SCF Done:  E(RB3LYP) =  -2070.41698316     A.U. after   16 cycles

      1  P    Isotropic =   321.2052   Anisotropy =   158.1008

      2  P    Isotropic =   315.3499   Anisotropy =   104.4778

      3  C    Isotropic =    44.2366   Anisotropy =   148.4499

      4  C    Isotropic =    33.2941   Anisotropy =   165.2085

      5  C    Isotropic =    34.6533   Anisotropy =   162.7870

      6  C    Isotropic =    43.0218   Anisotropy =   149.3602

      7  C    Isotropic =   124.4743   Anisotropy =    47.3084

      8  H    Isotropic =    28.3658   Anisotropy =     7.7541

      9  H    Isotropic =    27.4625   Anisotropy =     3.3822

     10  C    Isotropic =    49.6424   Anisotropy =   181.8593

     11  H    Isotropic =    23.7358   Anisotropy =     9.9536

     12  C    Isotropic =    49.0174   Anisotropy =   186.0224

     13  H    Isotropic =    24.1002   Anisotropy =     6.2551

     14  C    Isotropic =    44.8431   Anisotropy =   195.4257

     15  H    Isotropic =    23.9782   Anisotropy =     4.4534

     16  C    Isotropic =    56.2766   Anisotropy =   177.9652

     17  H    Isotropic =    23.7065   Anisotropy =     7.6562

     18  C    Isotropic =    48.9756   Anisotropy =   183.8184

     19  H    Isotropic =    24.7220   Anisotropy =     8.9964

     20  C    Isotropic =    49.4167   Anisotropy =   185.3837

     21  H    Isotropic =    24.5535   Anisotropy =     7.5448

     22  C    Isotropic =    45.4748   Anisotropy =   194.6721

     23  H    Isotropic =    24.1359   Anisotropy =     4.6545

     24  C    Isotropic =    56.8196   Anisotropy =   177.6043

     25  H    Isotropic =    23.7665   Anisotropy =     7.3373

     26  C    Isotropic =    43.3869   Anisotropy =   167.6079

     27  C    Isotropic =    49.5853   Anisotropy =   185.1540

     28  H    Isotropic =    23.7931   Anisotropy =    10.5876

     29  C    Isotropic =    48.7031   Anisotropy =   189.4642

     30  H    Isotropic =    23.9344   Anisotropy =     6.5225

     31  C    Isotropic =    46.1838   Anisotropy =   196.1580

     32  H    Isotropic =    24.0495   Anisotropy =     3.9950

     33  C    Isotropic =    48.4868   Anisotropy =   190.1481

     34  H    Isotropic =    24.3117   Anisotropy =     6.5501

     35  C    Isotropic =    47.0775   Anisotropy =   190.6227

     36  H    Isotropic =    25.0051   Anisotropy =    12.7586

     37  C    Isotropic =    46.2525   Anisotropy =   173.1151

     38  C    Isotropic =    45.9352   Anisotropy =   189.7109

     39  H    Isotropic =    24.3262   Anisotropy =    11.2254

     40  C    Isotropic =    47.0880   Anisotropy =   192.8466

     41  H    Isotropic =    23.9954   Anisotropy =     5.6270

     42  C    Isotropic =    44.0211   Anisotropy =   200.3030

     43  H    Isotropic =    23.7740   Anisotropy =     3.5944

     44  C    Isotropic =    49.1028   Anisotropy =   188.5850

     45  H    Isotropic =    23.8379   Anisotropy =     6.5979

     46  C    Isotropic =    40.9728   Anisotropy =   180.8986

     47  H    Isotropic =    23.1922   Anisotropy =    10.2184

     48  Rh   Isotropic =  -312.9261   Anisotropy =   362.9533

     49  C    Isotropic =    74.8637   Anisotropy =   126.6729

     50  C    Isotropic =    76.3267   Anisotropy =   117.9097

     51  C    Isotropic =    79.0218   Anisotropy =   120.0727

     52  C    Isotropic =    70.5973   Anisotropy =   125.6435

     53  C    Isotropic =   153.8671   Anisotropy =    24.8727

     54  H    Isotropic =    27.1046   Anisotropy =     6.0052

     55  H    Isotropic =    26.9530   Anisotropy =     4.0257

     56  C    Isotropic =   148.1272   Anisotropy =    29.1993

     57  C    Isotropic =   153.9688   Anisotropy =    24.7740

     58  H    Isotropic =    26.8683   Anisotropy =     6.8135

     59  C    Isotropic =   147.7052   Anisotropy =    29.5160

     60  H    Isotropic =    26.7764   Anisotropy =     3.3155

     61  H    Isotropic =    29.8727   Anisotropy =    11.3346

     62  H    Isotropic =    29.7920   Anisotropy =     9.4353

     63  H    Isotropic =    29.1947   Anisotropy =    12.5919

     64  H    Isotropic =    29.1425   Anisotropy =     8.1201

     65  H    Isotropic =    29.7712   Anisotropy =     9.4558

     66  H    Isotropic =    29.7668   Anisotropy =    11.7352

     67  H    Isotropic =    29.0486   Anisotropy =     7.4831

     68  H    Isotropic =    29.2180   Anisotropy =    12.2163

 The electronic state is 1-A.
 Alpha  occ. eigenvalues --  -77.24202 -77.23860 -10.30650 -10.30064 -10.29951
 Alpha  occ. eigenvalues --  -10.29535 -10.29457 -10.29414 -10.29371 -10.29291
 Alpha  occ. eigenvalues --  -10.29252 -10.29219 -10.29157 -10.28951 -10.28913
 Alpha  occ. eigenvalues --  -10.28724 -10.28717 -10.28390 -10.28387 -10.28230
 Alpha  occ. eigenvalues --  -10.28138 -10.28119 -10.27897 -10.27831 -10.27798
 Alpha  occ. eigenvalues --  -10.27796 -10.27758 -10.27749 -10.27699 -10.27682
 Alpha  occ. eigenvalues --  -10.27625 -10.27624 -10.27563 -10.27543 -10.27488
 Alpha  occ. eigenvalues --   -6.70183  -6.69888  -4.86465  -4.86407  -4.86168
 Alpha  occ. eigenvalues --   -4.86105  -4.86082  -4.85792  -3.32061  -2.08983
 Alpha  occ. eigenvalues --   -2.08275  -2.05518  -0.98978  -0.97250  -0.96479
 Alpha  occ. eigenvalues --   -0.95530  -0.94714  -0.90233  -0.89461  -0.88944
 Alpha  occ. eigenvalues --   -0.88270  -0.87220  -0.85872  -0.85652  -0.85274
 Alpha  occ. eigenvalues --   -0.85023  -0.84296  -0.82520  -0.80605  -0.78089
 Alpha  occ. eigenvalues --   -0.76543  -0.74320  -0.73467  -0.71739  -0.71351
 Alpha  occ. eigenvalues --   -0.70841  -0.70655  -0.69078  -0.68424  -0.67837
 Alpha  occ. eigenvalues --   -0.67203  -0.66084  -0.62944  -0.62723  -0.62313
 Alpha  occ. eigenvalues --   -0.61187  -0.60270  -0.59753  -0.58255  -0.57377
 Alpha  occ. eigenvalues --   -0.57088  -0.56622  -0.56492  -0.56327  -0.55861
 Alpha  occ. eigenvalues --   -0.55579  -0.55274  -0.54217  -0.53886  -0.53835
 Alpha  occ. eigenvalues --   -0.53591  -0.53282  -0.52964  -0.52865  -0.52839
 Alpha  occ. eigenvalues --   -0.52691  -0.51422  -0.51296  -0.50370  -0.49209
 Alpha  occ. eigenvalues --   -0.48853  -0.48311  -0.47934  -0.47787  -0.46664
 Alpha  occ. eigenvalues --   -0.46588  -0.46515  -0.46250  -0.46233  -0.45686
 Alpha  occ. eigenvalues --   -0.45408  -0.44905  -0.44646  -0.43935  -0.43651
 Alpha  occ. eigenvalues --   -0.43512  -0.43269  -0.43085  -0.41774  -0.39303
 Alpha  occ. eigenvalues --   -0.38415  -0.37976  -0.36891  -0.36734  -0.36307
 Alpha  occ. eigenvalues --   -0.36224  -0.36055  -0.35487  -0.35000  -0.34876
 Alpha  occ. eigenvalues --   -0.34203  -0.32948  -0.31258
 Alpha virt. eigenvalues --   -0.16986  -0.16337  -0.14723  -0.13961  -0.13815
 Alpha virt. eigenvalues --   -0.12482  -0.11355  -0.11060  -0.10899  -0.09571
 Alpha virt. eigenvalues --   -0.07948  -0.07664  -0.07398  -0.06923  -0.06487

 Mulliken charges:
               1
     1  P    0.219046
     2  P    0.325147
     3  C   -0.187241
     4  C    0.037954
     5  C    0.082106
     6  C   -0.261654
     7  C   -0.569981
     8  H    0.212750
     9  H    0.216437
    10  C    0.034700
    11  H    0.129242
    12  C   -0.106948
    13  H    0.129928
    14  C   -0.048669
    15  H    0.132517
    16  C   -0.117195
    17  H    0.128002
    18  C    0.073083
    19  H    0.173112
    20  C   -0.138662
    21  H    0.127226
    22  C   -0.036499
    23  H    0.131271
    24  C   -0.131459
    25  H    0.125930
    26  C   -0.147640
    27  C   -0.087177
    28  H    0.131145
    29  C   -0.102285
    30  H    0.133041
    31  C   -0.097534
    32  H    0.141421
    33  C   -0.097796
    34  H    0.136775
    35  C   -0.061486
    36  H    0.160377
    37  C   -0.243295
    38  C   -0.092128
    39  H    0.151625
    40  C   -0.079861
    41  H    0.139851
    42  C   -0.099873
    43  H    0.142877
    44  C   -0.101311
    45  H    0.133979
    46  C   -0.051623
    47  H    0.140392
    48  Rh  -0.516317
    49  C   -0.044051
    50  C   -0.073537
    51  C   -0.003366
    52  C   -0.110321
    53  C   -0.353459
    54  H    0.204535
    55  H    0.186977
    56  C   -0.214494
    57  C   -0.355513
    58  H    0.177047
    59  C   -0.224583
    60  H    0.212569
    61  H    0.170023
    62  H    0.167635
    63  H    0.174242
    64  H    0.132552
    65  H    0.167429
    66  H    0.169580
    67  H    0.129615
    68  H    0.173817
 Sum of Mulliken charges =   1.00000

 Dipole moment (field-independent basis, Debye):
    X=              0.5846    Y=              0.1075    Z=              0.1889  Tot=              0.6237
 Quadrupole moment (field-independent basis, Debye-Ang):
   XX=           -178.6047   YY=           -189.7706   ZZ=           -204.6596
   XY=              1.6969   XZ=             -1.3592   YZ=             -8.0279

 Summary of Natural Population Analysis:

                                       Natural Population
                Natural  -----------------------------------------------
    Atom  No    Charge         Core      Valence    Rydberg      Total
 -----------------------------------------------------------------------
      P    1    1.11554      9.99647     3.83886    0.04913    13.88446
      P    2    1.12656      9.99642     3.82659    0.05043    13.87344
      C    3   -0.31324      1.99899     4.29339    0.02086     6.31324
      C    4   -0.03542      1.99902     4.01796    0.01843     6.03542
      C    5   -0.03965      1.99902     4.02153    0.01909     6.03965
      C    6   -0.31157      1.99899     4.29011    0.02246     6.31157
      C    7   -0.95435      1.99943     4.93715    0.01777     6.95435
      H    8    0.26246      0.00000     0.73575    0.00179     0.73754
      H    9    0.26164      0.00000     0.73687    0.00149     0.73836
      C   10   -0.18474      1.99908     4.17034    0.01531     6.18474
      H   11    0.21378      0.00000     0.78437    0.00186     0.78622
      C   12   -0.19411      1.99921     4.18020    0.01470     6.19411
      H   13    0.22277      0.00000     0.77607    0.00116     0.77723
      C   14   -0.17018      1.99922     4.15652    0.01444     6.17018
      H   15    0.22390      0.00000     0.77496    0.00114     0.77610
      C   16   -0.17702      1.99911     4.16405    0.01386     6.17702
      H   17    0.21834      0.00000     0.77993    0.00172     0.78166
      C   18   -0.18210      1.99909     4.16762    0.01539     6.18210
      H   19    0.21988      0.00000     0.77786    0.00226     0.78012
      C   20   -0.19325      1.99921     4.17921    0.01482     6.19325
      H   21    0.22192      0.00000     0.77692    0.00115     0.77808
      C   22   -0.17163      1.99922     4.15784    0.01456     6.17163
      H   23    0.22324      0.00000     0.77563    0.00113     0.77676
      C   24   -0.17769      1.99911     4.16490    0.01368     6.17769
      H   25    0.21766      0.00000     0.78060    0.00174     0.78234
      C   26   -0.34258      1.99900     4.32006    0.02353     6.34258
      C   27   -0.19837      1.99909     4.18394    0.01534     6.19837
      H   28    0.20679      0.00000     0.79106    0.00215     0.79321
      C   29   -0.19057      1.99920     4.17661    0.01475     6.19057
      H   30    0.22212      0.00000     0.77665    0.00123     0.77788
      C   31   -0.17925      1.99920     4.16536    0.01469     6.17925
      H   32    0.22399      0.00000     0.77484    0.00117     0.77601
      C   33   -0.18786      1.99920     4.17397    0.01469     6.18786
      H   34    0.22378      0.00000     0.77501    0.00121     0.77622
      C   35   -0.19373      1.99909     4.17940    0.01523     6.19373
      H   36    0.22335      0.00000     0.77492    0.00173     0.77665
      C   37   -0.35114      1.99900     4.32789    0.02426     6.35114
      C   38   -0.18951      1.99909     4.17442    0.01600     6.18951
      H   39    0.21788      0.00000     0.78009    0.00204     0.78212
      C   40   -0.19041      1.99920     4.17661    0.01461     6.19041
      H   41    0.22507      0.00000     0.77371    0.00122     0.77493
      C   42   -0.17330      1.99921     4.15956    0.01453     6.17330
      H   43    0.22440      0.00000     0.77443    0.00116     0.77560
      C   44   -0.19820      1.99919     4.18437    0.01464     6.19820
      H   45    0.22286      0.00000     0.77591    0.00123     0.77714
      C   46   -0.18735      1.99909     4.17274    0.01552     6.18735
      H   47    0.22061      0.00000     0.77742    0.00197     0.77939
     Rh   48   -0.43060     35.98541     9.41390    0.03129    45.43060
      C   49   -0.16037      1.99906     4.14183    0.01948     6.16037
      C   50   -0.16188      1.99907     4.14292    0.01990     6.16188
      C   51   -0.18149      1.99906     4.16298    0.01945     6.18149
      C   52   -0.14533      1.99907     4.12626    0.02001     6.14533
      C   53   -0.42499      1.99936     4.41387    0.01175     6.42499
      H   54    0.22938      0.00000     0.76836    0.00226     0.77062
      H   55    0.23134      0.00000     0.76694    0.00172     0.76866
      C   56   -0.42091      1.99936     4.40930    0.01225     6.42091
      C   57   -0.42379      1.99936     4.41275    0.01167     6.42379
      H   58    0.22808      0.00000     0.77032    0.00160     0.77192
      C   59   -0.42056      1.99935     4.40888    0.01232     6.42056
      H   60    0.23251      0.00000     0.76556    0.00193     0.76749
      H   61    0.22912      0.00000     0.76943    0.00146     0.77088
      H   62    0.21522      0.00000     0.78283    0.00195     0.78478
      H   63    0.23564      0.00000     0.76250    0.00186     0.76436
      H   64    0.21943      0.00000     0.77914    0.00143     0.78057
      H   65    0.21535      0.00000     0.78272    0.00193     0.78465
      H   66    0.22880      0.00000     0.76972    0.00148     0.77120
      H   67    0.21883      0.00000     0.77970    0.00147     0.78117
      H   68    0.23490      0.00000     0.76322    0.00189     0.76510
 =======================================================================
   * Total *    1.00000    121.95027   181.32736    0.72237   304.00000

 Normal termination of Gaussian 16 at Tue Jan 21 16:12:33 2025.
