 Gaussian 16, Revision B.01,
 Gaussian 16:  ES64L-G16RevB.01 20-Dec-2017

 ------------------------------------------
 # nmr=giao b3lyp/genecp pop=nbo scfcyc=200
 ------------------------------------------

 ---------
 MB-78_SPE
 ---------
 Symbolic Z-matrix:
 Charge =  1 Multiplicity = 1

                         Standard orientation:
 ---------------------------------------------------------------------
 Center     Atomic      Atomic             Coordinates (Angstroms)
 Number     Number       Type             X           Y           Z
 ---------------------------------------------------------------------
      1         15           0       -1.414866    0.660476   -0.353230
      2          6           0       -1.699727    2.479108   -0.333770
      3          6           0       -1.516173    3.201847    0.846800
      4          6           0       -1.752616    4.572928    0.877720
      5          6           0       -2.167563    5.234030   -0.272150
      6          6           0       -2.345346    4.522991   -1.456460
      7          6           0       -2.115493    3.153620   -1.487940
      8          1           0       -2.256556    2.618741   -2.420150
      9          1           0       -2.663534    5.035843   -2.355410
     10          1           0       -2.350157    6.300931   -0.249120
     11          1           0       -1.609593    5.123197    1.799220
     12          1           0       -1.177476    2.694235    1.740310
     13          6           0       -0.278248    0.285301   -1.787520
     14         15           0        1.233930   -0.076267   -0.753950
     15          6           0        2.144113   -1.502642   -1.480140
     16          6           0        3.518272   -1.627159   -1.245890
     17          6           0        4.210156   -2.741642   -1.706330
     18          6           0        3.540111   -3.744319   -2.399990
     19          6           0        2.172732   -3.630892   -2.628450
     20          6           0        1.475097   -2.520378   -2.165720
     21          1           0        0.410338   -2.457243   -2.348590
     22          1           0        1.646338   -4.406959   -3.169800
     23          1           0        4.081297   -4.609182   -2.762060
     24          1           0        5.274866   -2.822618   -1.526860
     25          1           0        4.057036   -0.847972   -0.721370
     26          6           0        2.338107    1.377717   -0.977600
     27          6           0        2.949729    1.624964   -2.212340
     28          6           0        3.748185    2.748450   -2.381570
     29          6           0        3.943989    3.633689   -1.323540
     30          6           0        3.338018    3.394402   -0.096060
     31          6           0        2.536382    2.269626    0.077680
     32          1           0        2.056961    2.088269    1.031340
     33          1           0        3.488001    4.081301    0.727340
     34          1           0        4.569374    4.507206   -1.458430
     35          1           0        4.220145    2.933108   -3.338420
     36          1           0        2.813225    0.938435   -3.039140
     37          1           0       -0.670643   -0.619087   -2.257580
     38          1           0       -0.150264    1.067030   -2.534490
     39         45           0        0.039049   -0.300191    1.266860
     40          6           0       -0.995570    0.011424    3.287180
     41          6           0       -1.485695   -1.142023    2.715710
     42          6           0        1.316851   -1.849398    2.320640
     43          6           0        1.787777   -0.591590    2.641840
     44          6           0        0.034341    0.073899    4.399440
     45          1           0       -1.576985    0.914237    3.136150
     46          1           0       -2.430465   -1.066718    2.188150
     47          6           0       -1.048613   -2.554135    3.018290
     48          6           0        0.471466   -2.726103    3.225910
     49          1           0        1.805318   -2.361460    1.498880
     50          6           0        1.490551    0.190192    3.897970
     51          1           0        2.642199   -0.226624    2.080750
     52          1           0       -0.185025    0.939970    5.026040
     53          1           0       -0.075014   -0.796770    5.045800
     54          1           0       -1.587305   -2.924843    3.899380
     55          1           0       -1.367826   -3.187324    2.188030
     56          1           0        0.735487   -2.537595    4.266400
     57          1           0        0.729661   -3.769045    3.035710
     58          1           0        1.715827    1.240150    3.697460
     59          1           0        2.180620   -0.113162    4.695140
     60          7           0       -3.023866   -1.304445   -1.576250
     61          6           0       -2.751209   -3.786067   -1.297790
     62          1           0       -1.836019   -3.761851   -1.892560
     63          1           0       -2.633743   -4.550457   -0.527720
     64          1           0       -3.569181   -4.104102   -1.944670
     65          6           0       -3.101780   -0.027005   -0.906430
     66          1           0       -3.502396    0.722547   -1.588690
     67          1           0       -3.743150   -0.022422   -0.013210
     68          6           0       -3.017652   -2.437105   -0.641510
     69          1           0       -3.957562   -2.486100   -0.067920
     70          1           0       -2.223321   -2.238529    0.082570
     71          6           0       -3.943907   -1.422451   -2.723220
     72          1           0       -3.656591   -2.309342   -3.288620
     73          1           0       -3.744753   -0.572362   -3.380470
     74          6           0       -5.438627   -1.479873   -2.394210
     75          1           0       -6.018188   -1.543770   -3.317280
     76          1           0       -5.690582   -2.352552   -1.789030
     77          1           0       -5.772413   -0.588991   -1.857490
 ---------------------------------------------------------------------

 SCF Done:  E(RB3LYP) =  -2092.47468752     A.U. after   16 cycles

      1  P    Isotropic =   329.6763   Anisotropy =    92.6023

      2  C    Isotropic =    45.2158   Anisotropy =   175.8495

      3  C    Isotropic =    42.7961   Anisotropy =   178.1990

      4  C    Isotropic =    49.7583   Anisotropy =   187.7619

      5  C    Isotropic =    45.2210   Anisotropy =   198.3317

      6  C    Isotropic =    48.0560   Anisotropy =   191.0906

      7  C    Isotropic =    48.6925   Anisotropy =   186.5485

      8  H    Isotropic =    24.5692   Anisotropy =    11.3811

      9  H    Isotropic =    24.2919   Anisotropy =     5.8919

     10  H    Isotropic =    24.1646   Anisotropy =     3.7285

     11  H    Isotropic =    24.2298   Anisotropy =     6.7609

     12  H    Isotropic =    23.8217   Anisotropy =    10.3404

     13  C    Isotropic =   137.8864   Anisotropy =    48.0324

     14  P    Isotropic =   315.7897   Anisotropy =   116.9185

     15  C    Isotropic =    44.2168   Anisotropy =   169.8356

     16  C    Isotropic =    47.5018   Anisotropy =   190.1738

     17  C    Isotropic =    48.5413   Anisotropy =   190.7748

     18  C    Isotropic =    46.5675   Anisotropy =   195.5720

     19  C    Isotropic =    49.1625   Anisotropy =   189.3123

     20  C    Isotropic =    49.7619   Anisotropy =   187.9019

     21  H    Isotropic =    23.9004   Anisotropy =     9.6130

     22  H    Isotropic =    24.0223   Anisotropy =     6.8984

     23  H    Isotropic =    24.0835   Anisotropy =     3.7557

     24  H    Isotropic =    24.3424   Anisotropy =     6.3749

     25  H    Isotropic =    24.9848   Anisotropy =    11.8861

     26  C    Isotropic =    43.0781   Anisotropy =   172.5907

     27  C    Isotropic =    46.6077   Anisotropy =   187.9403

     28  C    Isotropic =    47.9215   Anisotropy =   191.2021

     29  C    Isotropic =    45.0696   Anisotropy =   198.4739

     30  C    Isotropic =    50.1218   Anisotropy =   187.5411

     31  C    Isotropic =    42.1433   Anisotropy =   180.2574

     32  H    Isotropic =    23.5151   Anisotropy =     9.1877

     33  H    Isotropic =    24.3337   Anisotropy =     6.9581

     34  H    Isotropic =    24.1616   Anisotropy =     3.8951

     35  H    Isotropic =    24.3360   Anisotropy =     5.8049

     36  H    Isotropic =    24.6308   Anisotropy =    11.6706

     37  H    Isotropic =    26.5322   Anisotropy =     5.4892

     38  H    Isotropic =    29.0885   Anisotropy =     9.7377

     39  Rh   Isotropic =  -315.6441   Anisotropy =   352.6319

     40  C    Isotropic =    77.7353   Anisotropy =   122.5818

     41  C    Isotropic =    75.1164   Anisotropy =   118.9883

     42  C    Isotropic =    76.2514   Anisotropy =   126.0629

     43  C    Isotropic =    80.3663   Anisotropy =   111.4186

     44  C    Isotropic =   153.8917   Anisotropy =    25.7096

     45  H    Isotropic =    26.5397   Anisotropy =     7.3580

     46  H    Isotropic =    26.3418   Anisotropy =     3.8682

     47  C    Isotropic =   147.8136   Anisotropy =    27.4886

     48  C    Isotropic =   154.2841   Anisotropy =    24.5739

     49  H    Isotropic =    27.6123   Anisotropy =     5.6153

     50  C    Isotropic =   147.5745   Anisotropy =    30.0246

     51  H    Isotropic =    26.6009   Anisotropy =     4.1209

     52  H    Isotropic =    29.6515   Anisotropy =    11.9412

     53  H    Isotropic =    29.7168   Anisotropy =     9.4152

     54  H    Isotropic =    29.1940   Anisotropy =    12.4454

     55  H    Isotropic =    29.2512   Anisotropy =     7.7048

     56  H    Isotropic =    29.8723   Anisotropy =     9.6406

     57  H    Isotropic =    30.0542   Anisotropy =    10.6368

     58  H    Isotropic =    28.8596   Anisotropy =     8.2562

     59  H    Isotropic =    29.0116   Anisotropy =    12.6858

     60  N    Isotropic =   202.5971   Anisotropy =    59.0459

     61  C    Isotropic =   169.6059   Anisotropy =    22.7296

     62  H    Isotropic =    30.5452   Anisotropy =     7.9336

     63  H    Isotropic =    30.4777   Anisotropy =     9.4998

     64  H    Isotropic =    30.2382   Anisotropy =     9.2061

     65  C    Isotropic =   118.4386   Anisotropy =    67.7332

     66  H    Isotropic =    28.7682   Anisotropy =     7.6405

     67  H    Isotropic =    28.6563   Anisotropy =     4.5097

     68  C    Isotropic =   136.1426   Anisotropy =    45.6034

     69  H    Isotropic =    28.9246   Anisotropy =     5.3890

     70  H    Isotropic =    28.4967   Anisotropy =    10.4428

     71  C    Isotropic =   132.8059   Anisotropy =    55.2861

     72  H    Isotropic =    28.2636   Anisotropy =     7.4725

     73  H    Isotropic =    29.1924   Anisotropy =     7.5869

     74  C    Isotropic =   177.8327   Anisotropy =    15.1721

     75  H    Isotropic =    31.0929   Anisotropy =    12.4592

     76  H    Isotropic =    30.6127   Anisotropy =     7.8419

     77  H    Isotropic =    31.0793   Anisotropy =     6.9048

 The electronic state is 1-A.
 Alpha  occ. eigenvalues --  -77.23743 -77.23039 -14.41566 -10.31612 -10.29622
 Alpha  occ. eigenvalues --  -10.29603 -10.29559 -10.29384 -10.29286 -10.29208
 Alpha  occ. eigenvalues --  -10.29113 -10.29042 -10.28938 -10.28855 -10.28505
 Alpha  occ. eigenvalues --  -10.28351 -10.28322 -10.28243 -10.28189 -10.28150
 Alpha  occ. eigenvalues --  -10.27706 -10.27685 -10.27679 -10.27628 -10.27568
 Alpha  occ. eigenvalues --  -10.27548 -10.27524 -10.27485 -10.27454 -10.27451
 Alpha  occ. eigenvalues --  -10.27436 -10.27376 -10.27364 -10.25301 -10.24556
 Alpha  occ. eigenvalues --   -6.69722  -6.69075  -4.86003  -4.85946  -4.85628
 Alpha  occ. eigenvalues --   -4.85363  -4.85273  -4.84975  -3.31609  -2.08498
 Alpha  occ. eigenvalues --   -2.07834  -2.05069  -1.02871  -0.96732  -0.96469
 Alpha  occ. eigenvalues --   -0.96029  -0.94588  -0.89449  -0.89313  -0.88140
 Alpha  occ. eigenvalues --   -0.87095  -0.85609  -0.85356  -0.85270  -0.85195
 Alpha  occ. eigenvalues --   -0.84839  -0.84516  -0.83453  -0.80482  -0.78155
 Alpha  occ. eigenvalues --   -0.77946  -0.74463  -0.73412  -0.72186  -0.71207
 Alpha  occ. eigenvalues --   -0.71059  -0.70884  -0.70704  -0.70204  -0.67520
 Alpha  occ. eigenvalues --   -0.66723  -0.66055  -0.65273  -0.62647  -0.62431
 Alpha  occ. eigenvalues --   -0.61924  -0.60992  -0.60157  -0.59273  -0.58010
 Alpha  occ. eigenvalues --   -0.57246  -0.56761  -0.56397  -0.56283  -0.56094
 Alpha  occ. eigenvalues --   -0.55709  -0.55470  -0.55402  -0.54988  -0.54636
 Alpha  occ. eigenvalues --   -0.53808  -0.53287  -0.52951  -0.52691  -0.52672
 Alpha  occ. eigenvalues --   -0.52608  -0.52565  -0.52290  -0.50944  -0.50725
 Alpha  occ. eigenvalues --   -0.49439  -0.49027  -0.48619  -0.48206  -0.48186
 Alpha  occ. eigenvalues --   -0.47608  -0.47534  -0.47212  -0.46875  -0.46385
 Alpha  occ. eigenvalues --   -0.46215  -0.45986  -0.45722  -0.45260  -0.45085
 Alpha  occ. eigenvalues --   -0.44944  -0.44134  -0.43861  -0.43689  -0.43508
 Alpha  occ. eigenvalues --   -0.43444  -0.43293  -0.43164  -0.42324  -0.41309
 Alpha  occ. eigenvalues --   -0.38140  -0.36761  -0.36698  -0.36248  -0.36026
 Alpha  occ. eigenvalues --   -0.35924  -0.35738  -0.35461  -0.34775  -0.34581
 Alpha  occ. eigenvalues --   -0.33924  -0.31682  -0.30729
 Alpha virt. eigenvalues --   -0.16482  -0.14704  -0.13642  -0.13099  -0.12067
 Alpha virt. eigenvalues --   -0.11522  -0.11460  -0.10774  -0.09475  -0.08061
 Alpha virt. eigenvalues --   -0.07145  -0.06805  -0.06320  -0.05833  -0.05539

 Mulliken charges:
               1
     1  P    0.365902
     2  C   -0.162739
     3  C   -0.013458
     4  C   -0.117694
     5  C   -0.094121
     6  C   -0.092120
     7  C   -0.103766
     8  H    0.143042
     9  H    0.135108
    10  H    0.140988
    11  H    0.130046
    12  H    0.127430
    13  C   -0.552081
    14  P    0.346948
    15  C   -0.154371
    16  C   -0.066048
    17  C   -0.102330
    18  C   -0.091498
    19  C   -0.117051
    20  C   -0.062062
    21  H    0.129225
    22  H    0.130849
    23  H    0.139950
    24  H    0.135660
    25  H    0.154785
    26  C   -0.279872
    27  C   -0.071495
    28  C   -0.091198
    29  C   -0.085834
    30  C   -0.119161
    31  C   -0.000122
    32  H    0.164446
    33  H    0.128470
    34  H    0.139142
    35  H    0.136580
    36  H    0.149492
    37  H    0.216745
    38  H    0.225857
    39  Rh  -0.566134
    40  C    0.004056
    41  C   -0.121409
    42  C   -0.026900
    43  C   -0.107208
    44  C   -0.351886
    45  H    0.172959
    46  H    0.188602
    47  C   -0.224362
    48  C   -0.349637
    49  H    0.204534
    50  C   -0.223771
    51  H    0.198275
    52  H    0.168725
    53  H    0.168708
    54  H    0.170722
    55  H    0.133232
    56  H    0.166928
    57  H    0.170552
    58  H    0.127865
    59  H    0.172694
    60  N   -0.201886
    61  C   -0.402222
    62  H    0.124097
    63  H    0.138377
    64  H    0.147196
    65  C   -0.345206
    66  H    0.191494
    67  H    0.170752
    68  C   -0.168541
    69  H    0.139081
    70  H    0.136495
    71  C   -0.214691
    72  H    0.160129
    73  H    0.137746
    74  C   -0.354000
    75  H    0.145802
    76  H    0.130938
    77  H    0.124248
 Sum of Mulliken charges =   1.00000

 Dipole moment (field-independent basis, Debye):
    X=             -0.2884    Y=              0.4678    Z=             -0.2394  Tot=              0.5995
 Quadrupole moment (field-independent basis, Debye-Ang):
   XX=           -200.3596   YY=           -193.0412   ZZ=           -204.5524
   XY=              0.5312   XZ=              2.1717   YZ=              1.1238

 Summary of Natural Population Analysis:

                                       Natural Population
                Natural  -----------------------------------------------
    Atom  No    Charge         Core      Valence    Rydberg      Total
 -----------------------------------------------------------------------
      P    1    1.06641      9.99672     3.88909    0.04778    13.93359
      C    2   -0.34107      1.99900     4.31916    0.02291     6.34107
      C    3   -0.17985      1.99910     4.16546    0.01529     6.17985
      C    4   -0.19452      1.99920     4.18076    0.01456     6.19452
      C    5   -0.17473      1.99921     4.16097    0.01456     6.17473
      C    6   -0.18984      1.99920     4.17598    0.01467     6.18984
      C    7   -0.19466      1.99910     4.17979    0.01578     6.19466
      H    8    0.20783      0.00000     0.78998    0.00219     0.79217
      H    9    0.22281      0.00000     0.77595    0.00124     0.77719
      H   10    0.22314      0.00000     0.77569    0.00117     0.77686
      H   11    0.22084      0.00000     0.77793    0.00123     0.77916
      H   12    0.21553      0.00000     0.78254    0.00193     0.78447
      C   13   -0.98659      1.99942     4.96953    0.01764     6.98659
      P   14    1.13083      9.99647     3.82246    0.05025    13.86917
      C   15   -0.34006      1.99900     4.31743    0.02363     6.34006
      C   16   -0.19705      1.99910     4.18278    0.01517     6.19705
      C   17   -0.18922      1.99920     4.17531    0.01471     6.18922
      C   18   -0.18159      1.99920     4.16767    0.01472     6.18159
      C   19   -0.19072      1.99920     4.17683    0.01469     6.19072
      C   20   -0.19575      1.99909     4.18123    0.01543     6.19575
      H   21    0.20859      0.00000     0.78856    0.00285     0.79141
      H   22    0.22098      0.00000     0.77778    0.00124     0.77902
      H   23    0.22317      0.00000     0.77566    0.00117     0.77683
      H   24    0.22313      0.00000     0.77565    0.00122     0.77687
      H   25    0.22047      0.00000     0.77781    0.00171     0.77953
      C   26   -0.34735      1.99900     4.32411    0.02424     6.34735
      C   27   -0.18890      1.99910     4.17373    0.01607     6.18890
      C   28   -0.19159      1.99920     4.17782    0.01456     6.19159
      C   29   -0.17426      1.99921     4.16052    0.01452     6.17426
      C   30   -0.19644      1.99920     4.18267    0.01457     6.19644
      C   31   -0.18144      1.99910     4.16677    0.01557     6.18144
      H   32    0.21932      0.00000     0.77837    0.00232     0.78068
      H   33    0.22060      0.00000     0.77817    0.00123     0.77940
      H   34    0.22270      0.00000     0.77612    0.00117     0.77730
      H   35    0.22324      0.00000     0.77553    0.00123     0.77676
      H   36    0.21905      0.00000     0.77905    0.00189     0.78095
      H   37    0.27628      0.00000     0.72145    0.00227     0.72372
      H   38    0.25889      0.00000     0.73923    0.00188     0.74111
     Rh   39   -0.41112     35.98629     9.39578    0.02905    45.41112
      C   40   -0.17529      1.99907     4.15654    0.01968     6.17529
      C   41   -0.16030      1.99907     4.14099    0.02023     6.16030
      C   42   -0.16535      1.99907     4.14692    0.01936     6.16535
      C   43   -0.17047      1.99908     4.15139    0.02000     6.17047
      C   44   -0.42388      1.99936     4.41270    0.01182     6.42388
      H   45    0.22305      0.00000     0.77495    0.00200     0.77695
      H   46    0.22320      0.00000     0.77459    0.00220     0.77680
      C   47   -0.41888      1.99935     4.40668    0.01285     6.41888
      C   48   -0.42293      1.99936     4.41176    0.01181     6.42293
      H   49    0.23190      0.00000     0.76604    0.00206     0.76810
      C   50   -0.41707      1.99935     4.40498    0.01274     6.41707
      H   51    0.22586      0.00000     0.77207    0.00208     0.77414
      H   52    0.22835      0.00000     0.77017    0.00148     0.77165
      H   53    0.21586      0.00000     0.78217    0.00197     0.78414
      H   54    0.23361      0.00000     0.76446    0.00192     0.76639
      H   55    0.21412      0.00000     0.78401    0.00187     0.78588
      H   56    0.21481      0.00000     0.78323    0.00196     0.78519
      H   57    0.22937      0.00000     0.76917    0.00146     0.77063
      H   58    0.21314      0.00000     0.78524    0.00162     0.78686
      H   59    0.23393      0.00000     0.76416    0.00190     0.76607
      N   60   -0.44654      1.99953     5.42337    0.02363     7.44654
      C   61   -0.60213      1.99945     4.59582    0.00685     6.60213
      H   62    0.20168      0.00000     0.79675    0.00156     0.79832
      H   63    0.21758      0.00000     0.78132    0.00110     0.78242
      H   64    0.20852      0.00000     0.79009    0.00138     0.79148
      C   65   -0.45354      1.99931     4.43692    0.01732     6.45354
      H   66    0.22481      0.00000     0.77221    0.00298     0.77519
      H   67    0.19878      0.00000     0.79786    0.00336     0.80122
      C   68   -0.20983      1.99938     4.19739    0.01306     6.20983
      H   69    0.16671      0.00000     0.82983    0.00346     0.83329
      H   70    0.19662      0.00000     0.80066    0.00272     0.80338
      C   71   -0.20847      1.99936     4.19436    0.01475     6.20847
      H   72    0.20144      0.00000     0.79677    0.00179     0.79856
      H   73    0.19092      0.00000     0.80728    0.00180     0.80908
      C   74   -0.62419      1.99946     4.61847    0.00626     6.62419
      H   75    0.22217      0.00000     0.77670    0.00114     0.77783
      H   76    0.20437      0.00000     0.79424    0.00139     0.79563
      H   77    0.20098      0.00000     0.79772    0.00130     0.79902
 =======================================================================
   * Total *    1.00000    121.95349   191.32133    0.72519   314.00000

 Normal termination of Gaussian 16 at Tue Jan 21 16:13:00 2025.
