 Gaussian 16, Revision B.01,
 Gaussian 16:  ES64L-G16RevB.01 20-Dec-2017

 ------------------------------------------
 # nmr=giao b3lyp/genecp pop=nbo scfcyc=200
 ------------------------------------------

 ---------
 MB-83_SPE
 ---------
 Symbolic Z-matrix:
 Charge =  1 Multiplicity = 1

                         Standard orientation:
 ---------------------------------------------------------------------
 Center     Atomic      Atomic             Coordinates (Angstroms)
 Number     Number       Type             X           Y           Z
 ---------------------------------------------------------------------
      1         15           0       -1.218760    0.122398   -0.399132
      2          6           0       -2.644739   -0.861993   -1.019142
      3          6           0       -2.420008   -2.072113   -1.685222
      4          6           0       -3.484897   -2.859244   -2.098652
      5          6           0       -4.807438   -2.477646   -1.849802
      6          6           0       -5.022099   -1.281116   -1.164292
      7          6           0       -3.961730   -0.481605   -0.752002
      8          1           0       -4.168921    0.442455   -0.228632
      9          1           0       -6.035769   -0.964117   -0.948482
     10          1           0       -3.286596   -3.788714   -2.619852
     11          1           0       -1.410698   -2.414502   -1.881602
     12          6           0       -1.855782    1.813568   -0.093832
     13          6           0       -1.785413    2.362008    1.186458
     14          6           0       -2.264774    3.644907    1.431378
     15          6           0       -2.822405    4.413457    0.409808
     16          6           0       -2.884095    3.856926   -0.874202
     17          6           0       -2.411653    2.578727   -1.126532
     18          1           0       -2.485443    2.176787   -2.130282
     19          1           0       -3.308945    4.435616   -1.686432
     20          1           0       -2.199865    4.054117    2.432678
     21          1           0       -1.345662    1.789778    1.993888
     22          6           0        0.015539    0.285260   -1.804242
     23         15           0        1.547420    0.197031   -0.725692
     24          6           0        2.840491   -0.743767   -1.643692
     25          6           0        4.166490   -0.304326   -1.679042
     26          6           0        5.141381   -1.070215   -2.311872
     27          6           0        4.804932   -2.278285   -2.911082
     28          6           0        3.487863   -2.727916   -2.869012
     29          6           0        2.513162   -1.971038   -2.231442
     30          1           0        1.498012   -2.347499   -2.191422
     31          1           0        3.220314   -3.670267   -3.330412
     32          1           0        5.564513   -2.869614   -3.406382
     33          1           0        6.164511   -0.716803   -2.337872
     34          1           0        4.443319    0.637645   -1.224752
     35          6           0        2.164988    1.923922   -0.607512
     36          6           0        2.451987    2.664232   -1.760392
     37          6           0        2.910765    3.970623   -1.654632
     38          6           0        3.087995    4.549803   -0.399832
     39          6           0        2.803055    3.821023    0.748578
     40          6           0        2.340697    2.512062    0.646048
     41          1           0        2.106838    1.950912    1.541678
     42          1           0        2.937565    4.269713    1.724718
     43          1           0        3.447484    5.568054   -0.320612
     44          1           0        3.131845    4.537183   -2.550472
     45          1           0        2.328627    2.222372   -2.742082
     46          1           0       -0.037180   -0.594050   -2.445152
     47          1           0       -0.079572    1.179990   -2.418002
     48         45           0        0.387791   -0.776300    1.085788
     49          6           0       -0.810929   -1.348581    2.934448
     50          6           0       -0.936388   -2.351341    1.994838
     51          6           0        1.975272   -2.230608    1.833958
     52          6           0        2.071221   -1.058548    2.554748
     53          6           0        0.088291   -1.390950    4.156268
     54          1           0       -1.601840   -0.606152    2.961258
     55          1           0       -1.826988   -2.341102    1.375748
     56          6           0       -0.159476   -3.643760    1.943548
     57          6           0        1.330714   -3.514299    2.323428
     58          1           0        2.633152   -2.335297    0.978468
     59          6           0        1.490031   -0.785559    3.920398
     60          1           0        2.828160   -0.347997    2.237008
     61          1           0       -0.395189   -0.835711    4.961728
     62          1           0        0.174012   -2.417510    4.512018
     63          1           0       -0.643375   -4.389171    2.587268
     64          1           0       -0.236936   -4.035031    0.926928
     65          1           0        1.456484   -3.597359    3.402778
     66          1           0        1.872285   -4.358208    1.892888
     67          1           0        1.435509    0.298211    4.047558
     68          1           0        2.180911   -1.140048    4.695458
     69          6           0       -3.360007    5.794136    0.673198
     70          1           0       -3.032988    6.499466   -0.093042
     71          1           0       -4.453527    5.791925    0.664708
     72          1           0       -3.037137    6.170706    1.643578
     73          6           0       -5.959107   -3.320827   -2.326452
     74          1           0       -6.214537   -3.075057   -3.361372
     75          1           0       -5.715345   -4.383637   -2.295562
     76          1           0       -6.851097   -3.156538   -1.721492
 ---------------------------------------------------------------------

 SCF Done:  E(RB3LYP) =  -2150.27560879     A.U. after   16 cycles

      1  P    Isotropic =   318.3745   Anisotropy =   108.7776

      2  C    Isotropic =    47.2735   Anisotropy =   162.4156

      3  C    Isotropic =    49.8058   Anisotropy =   180.0358

      4  C    Isotropic =    48.2753   Anisotropy =   169.7285

      5  C    Isotropic =    31.7861   Anisotropy =   211.7304

      6  C    Isotropic =    48.2654   Anisotropy =   168.0812

      7  C    Isotropic =    46.9057   Anisotropy =   187.8257

      8  H    Isotropic =    25.2459   Anisotropy =    12.9840

      9  H    Isotropic =    24.5709   Anisotropy =     8.1980

     10  H    Isotropic =    24.0818   Anisotropy =     8.3657

     11  H    Isotropic =    23.8231   Anisotropy =    10.5468

     12  C    Isotropic =    51.1140   Anisotropy =   168.6227

     13  C    Isotropic =    41.0784   Anisotropy =   178.0447

     14  C    Isotropic =    49.3430   Anisotropy =   163.9755

     15  C    Isotropic =    30.1892   Anisotropy =   215.9558

     16  C    Isotropic =    47.6507   Anisotropy =   175.0395

     17  C    Isotropic =    47.2404   Anisotropy =   186.2955

     18  H    Isotropic =    24.6619   Anisotropy =    10.7485

     19  H    Isotropic =    24.4579   Anisotropy =     7.1084

     20  H    Isotropic =    24.4850   Anisotropy =     7.9514

     21  H    Isotropic =    23.8726   Anisotropy =     9.9368

     22  C    Isotropic =   126.3453   Anisotropy =    44.4409

     23  P    Isotropic =   316.3028   Anisotropy =   110.4217

     24  C    Isotropic =    43.0377   Anisotropy =   168.0277

     25  C    Isotropic =    46.8071   Anisotropy =   191.5778

     26  C    Isotropic =    48.8085   Anisotropy =   189.6332

     27  C    Isotropic =    46.5494   Anisotropy =   195.4708

     28  C    Isotropic =    48.9989   Anisotropy =   188.7359

     29  C    Isotropic =    49.5857   Anisotropy =   184.5043

     30  H    Isotropic =    23.6882   Anisotropy =    10.6284

     31  H    Isotropic =    23.9580   Anisotropy =     6.6337

     32  H    Isotropic =    24.0993   Anisotropy =     3.8542

     33  H    Isotropic =    24.3826   Anisotropy =     6.5828

     34  H    Isotropic =    25.1056   Anisotropy =    13.0371

     35  C    Isotropic =    45.9383   Anisotropy =   174.2141

     36  C    Isotropic =    46.5091   Anisotropy =   189.8837

     37  C    Isotropic =    48.2316   Anisotropy =   191.8526

     38  C    Isotropic =    45.0309   Anisotropy =   199.4532

     39  C    Isotropic =    49.7319   Anisotropy =   188.9930

     40  C    Isotropic =    41.5292   Anisotropy =   182.4756

     41  H    Isotropic =    23.7455   Anisotropy =     9.5272

     42  H    Isotropic =    24.2651   Anisotropy =     6.4443

     43  H    Isotropic =    24.1493   Anisotropy =     3.5536

     44  H    Isotropic =    24.2868   Anisotropy =     5.4429

     45  H    Isotropic =    24.5273   Anisotropy =    11.0110

     46  H    Isotropic =    27.3805   Anisotropy =     2.6923

     47  H    Isotropic =    28.1588   Anisotropy =     8.3611

     48  Rh   Isotropic =  -310.6658   Anisotropy =   339.5295

     49  C    Isotropic =    81.0667   Anisotropy =   117.2958

     50  C    Isotropic =    71.4109   Anisotropy =   124.5279

     51  C    Isotropic =    73.8324   Anisotropy =   128.6819

     52  C    Isotropic =    79.5759   Anisotropy =   111.6630

     53  C    Isotropic =   154.0806   Anisotropy =    24.8884

     54  H    Isotropic =    27.0145   Anisotropy =     6.9936

     55  H    Isotropic =    27.0081   Anisotropy =     4.4043

     56  C    Isotropic =   147.5986   Anisotropy =    29.2209

     57  C    Isotropic =   153.7287   Anisotropy =    25.2765

     58  H    Isotropic =    27.4225   Anisotropy =     5.3433

     59  C    Isotropic =   147.9987   Anisotropy =    29.6603

     60  H    Isotropic =    26.5084   Anisotropy =     4.7676

     61  H    Isotropic =    29.7594   Anisotropy =    11.8144

     62  H    Isotropic =    29.7630   Anisotropy =     9.4551

     63  H    Isotropic =    29.2962   Anisotropy =    12.2154

     64  H    Isotropic =    29.1274   Anisotropy =     7.3835

     65  H    Isotropic =    29.8244   Anisotropy =     9.5054

     66  H    Isotropic =    29.9841   Anisotropy =    10.8859

     67  H    Isotropic =    28.9311   Anisotropy =     8.6087

     68  H    Isotropic =    29.0137   Anisotropy =    12.7021

     69  C    Isotropic =   161.8996   Anisotropy =    42.5433

     70  H    Isotropic =    29.4985   Anisotropy =     8.1651

     71  H    Isotropic =    29.2676   Anisotropy =     9.7150

     72  H    Isotropic =    29.7613   Anisotropy =     7.3618

     73  C    Isotropic =   161.9862   Anisotropy =    42.5106

     74  H    Isotropic =    29.2063   Anisotropy =     9.3431

     75  H    Isotropic =    29.4480   Anisotropy =     8.0319

     76  H    Isotropic =    29.5811   Anisotropy =     8.1678

 The electronic state is 1-A.
 Alpha  occ. eigenvalues --  -77.23638 -77.23485 -10.30014 -10.29529 -10.29425
 Alpha  occ. eigenvalues --  -10.29023 -10.28911 -10.28870 -10.28832 -10.28764
 Alpha  occ. eigenvalues --  -10.28598 -10.28343 -10.28320 -10.28318 -10.28317
 Alpha  occ. eigenvalues --  -10.28100 -10.28043 -10.28030 -10.28015 -10.27983
 Alpha  occ. eigenvalues --  -10.27696 -10.27633 -10.27545 -10.27504 -10.27501
 Alpha  occ. eigenvalues --  -10.27429 -10.27340 -10.27338 -10.27280 -10.27146
 Alpha  occ. eigenvalues --  -10.27114 -10.26997 -10.26968 -10.26921 -10.26747
 Alpha  occ. eigenvalues --  -10.25158 -10.24956  -6.69615  -6.69454  -4.85897
 Alpha  occ. eigenvalues --   -4.85840  -4.85739  -4.85674  -4.85515  -4.85358
 Alpha  occ. eigenvalues --   -3.31440  -2.08332  -2.07650  -2.04921  -0.96770
 Alpha  occ. eigenvalues --   -0.96552  -0.96029  -0.95999  -0.94261  -0.89851
 Alpha  occ. eigenvalues --   -0.88974  -0.87885  -0.87837  -0.86997  -0.85275
 Alpha  occ. eigenvalues --   -0.85265  -0.84924  -0.84847  -0.84786  -0.84254
 Alpha  occ. eigenvalues --   -0.80160  -0.79290  -0.77770  -0.77628  -0.74521
 Alpha  occ. eigenvalues --   -0.71655  -0.71234  -0.71111  -0.70899  -0.70567
 Alpha  occ. eigenvalues --   -0.70393  -0.70180  -0.68278  -0.66824  -0.66320
 Alpha  occ. eigenvalues --   -0.65663  -0.62497  -0.62241  -0.61297  -0.60607
 Alpha  occ. eigenvalues --   -0.59811  -0.58588  -0.57036  -0.56848  -0.56590
 Alpha  occ. eigenvalues --   -0.56339  -0.56092  -0.56030  -0.55575  -0.55242
 Alpha  occ. eigenvalues --   -0.55103  -0.54628  -0.54530  -0.53489  -0.52865
 Alpha  occ. eigenvalues --   -0.52662  -0.52499  -0.52459  -0.52366  -0.52219
 Alpha  occ. eigenvalues --   -0.52195  -0.50976  -0.50812  -0.50627  -0.48957
 Alpha  occ. eigenvalues --   -0.48602  -0.48346  -0.48100  -0.47702  -0.47486
 Alpha  occ. eigenvalues --   -0.47362  -0.47195  -0.46661  -0.45948  -0.45814
 Alpha  occ. eigenvalues --   -0.45719  -0.45451  -0.45126  -0.44941  -0.44140
 Alpha  occ. eigenvalues --   -0.44060  -0.43580  -0.43402  -0.43091  -0.43000
 Alpha  occ. eigenvalues --   -0.42920  -0.42427  -0.41186  -0.37924  -0.37151
 Alpha  occ. eigenvalues --   -0.36391  -0.36218  -0.35870  -0.35722  -0.35527
 Alpha  occ. eigenvalues --   -0.35368  -0.34850  -0.34593  -0.34337  -0.33797
 Alpha  occ. eigenvalues --   -0.33692  -0.30621
 Alpha virt. eigenvalues --   -0.16232  -0.14719  -0.13684  -0.12953  -0.12698
 Alpha virt. eigenvalues --   -0.12003  -0.11540  -0.10705  -0.10449  -0.10297
 Alpha virt. eigenvalues --   -0.09145  -0.07498  -0.06853  -0.06415  -0.05695

 Mulliken charges:
               1
     1  P    0.304225
     2  C   -0.199166
     3  C   -0.024260
     4  C   -0.143811
     5  C    0.091348
     6  C   -0.126632
     7  C   -0.036357
     8  H    0.155878
     9  H    0.129475
    10  H    0.125140
    11  H    0.135743
    12  C   -0.221801
    13  C   -0.001627
    14  C   -0.134069
    15  C    0.090529
    16  C   -0.111873
    17  C   -0.066537
    18  H    0.142151
    19  H    0.131676
    20  H    0.123948
    21  H    0.129255
    22  C   -0.587817
    23  P    0.301236
    24  C   -0.170950
    25  C   -0.057697
    26  C   -0.101552
    27  C   -0.093451
    28  C   -0.116059
    29  C   -0.056394
    30  H    0.141436
    31  H    0.130127
    32  H    0.140023
    33  H    0.135737
    34  H    0.160738
    35  C   -0.216535
    36  C   -0.091559
    37  C   -0.081743
    38  C   -0.095040
    39  C   -0.113655
    40  C   -0.023403
    41  H    0.147735
    42  H    0.129334
    43  H    0.139523
    44  H    0.136268
    45  H    0.147535
    46  H    0.205875
    47  H    0.211183
    48  Rh  -0.499081
    49  C   -0.002162
    50  C   -0.115359
    51  C   -0.028448
    52  C   -0.086624
    53  C   -0.347885
    54  H    0.174445
    55  H    0.220286
    56  C   -0.229986
    57  C   -0.355020
    58  H    0.207621
    59  C   -0.222751
    60  H    0.181628
    61  H    0.168475
    62  H    0.166620
    63  H    0.170971
    64  H    0.129371
    65  H    0.166355
    66  H    0.168368
    67  H    0.127218
    68  H    0.171869
    69  C   -0.433211
    70  H    0.144843
    71  H    0.156195
    72  H    0.140154
    73  C   -0.430509
    74  H    0.158482
    75  H    0.140686
    76  H    0.143316
 Sum of Mulliken charges =   1.00000

 Dipole moment (field-independent basis, Debye):
    X=             -0.0221    Y=              0.3514    Z=             -0.4362  Tot=              0.5605
 Quadrupole moment (field-independent basis, Debye-Ang):
   XX=           -195.0792   YY=           -192.0972   ZZ=           -217.7538
   XY=              0.1853   XZ=              0.1677   YZ=              4.6188

 Summary of Natural Population Analysis:

                                       Natural Population
                Natural  -----------------------------------------------
    Atom  No    Charge         Core      Valence    Rydberg      Total
 -----------------------------------------------------------------------
      P    1    1.12517      9.99648     3.82689    0.05146    13.87483
      C    2   -0.35454      1.99899     4.33246    0.02309     6.35454
      C    3   -0.19046      1.99909     4.17601    0.01535     6.19046
      C    4   -0.19408      1.99911     4.18128    0.01369     6.19408
      C    5    0.01377      1.99914     3.97248    0.01460     5.98623
      C    6   -0.19195      1.99911     4.17924    0.01360     6.19195
      C    7   -0.18422      1.99910     4.16983    0.01529     6.18422
      H    8    0.22348      0.00000     0.77475    0.00177     0.77652
      H    9    0.21770      0.00000     0.78090    0.00140     0.78230
      H   10    0.21593      0.00000     0.78264    0.00143     0.78407
      H   11    0.20436      0.00000     0.79350    0.00213     0.79564
      C   12   -0.36221      1.99899     4.33924    0.02398     6.36221
      C   13   -0.16979      1.99910     4.15479    0.01589     6.16979
      C   14   -0.20093      1.99910     4.18801    0.01381     6.20093
      C   15    0.02047      1.99914     3.96588    0.01450     5.97953
      C   16   -0.19417      1.99910     4.18142    0.01365     6.19417
      C   17   -0.18182      1.99910     4.16609    0.01663     6.18182
      H   18    0.21465      0.00000     0.78325    0.00211     0.78535
      H   19    0.21789      0.00000     0.78073    0.00138     0.78211
      H   20    0.21580      0.00000     0.78278    0.00142     0.78420
      H   21    0.21772      0.00000     0.78026    0.00201     0.78228
      C   22   -0.96394      1.99942     4.94651    0.01800     6.96394
      P   23    1.11999      9.99648     3.83331    0.05022    13.88001
      C   24   -0.33879      1.99899     4.31624    0.02356     6.33879
      C   25   -0.19379      1.99910     4.17944    0.01526     6.19379
      C   26   -0.18854      1.99920     4.17463    0.01470     6.18854
      C   27   -0.18075      1.99920     4.16683    0.01472     6.18075
      C   28   -0.19197      1.99920     4.17802    0.01475     6.19197
      C   29   -0.19763      1.99909     4.18329    0.01525     6.19763
      H   30    0.20593      0.00000     0.79200    0.00207     0.79407
      H   31    0.22100      0.00000     0.77777    0.00123     0.77900
      H   32    0.22318      0.00000     0.77565    0.00117     0.77682
      H   33    0.22309      0.00000     0.77570    0.00121     0.77691
      H   34    0.22385      0.00000     0.77440    0.00175     0.77615
      C   35   -0.34838      1.99900     4.32520    0.02419     6.34838
      C   36   -0.18973      1.99909     4.17467    0.01597     6.18973
      C   37   -0.19233      1.99920     4.17853    0.01460     6.19233
      C   38   -0.17423      1.99921     4.16051    0.01451     6.17423
      C   39   -0.19596      1.99920     4.18218    0.01458     6.19596
      C   40   -0.17857      1.99909     4.16401    0.01546     6.17857
      H   41    0.21773      0.00000     0.78015    0.00213     0.78227
      H   42    0.22101      0.00000     0.77776    0.00123     0.77899
      H   43    0.22262      0.00000     0.77621    0.00117     0.77738
      H   44    0.22310      0.00000     0.77566    0.00124     0.77690
      H   45    0.21599      0.00000     0.78193    0.00207     0.78401
      H   46    0.25712      0.00000     0.74127    0.00161     0.74288
      H   47    0.25703      0.00000     0.74111    0.00186     0.74297
     Rh   48   -0.40931     35.98584     9.39345    0.03002    45.40931
      C   49   -0.18524      1.99906     4.16667    0.01951     6.18524
      C   50   -0.14896      1.99907     4.13004    0.01984     6.14896
      C   51   -0.15725      1.99906     4.13888    0.01931     6.15725
      C   52   -0.17463      1.99907     4.15563    0.01993     6.17463
      C   53   -0.42243      1.99936     4.41141    0.01166     6.42243
      H   54    0.22554      0.00000     0.77249    0.00197     0.77446
      H   55    0.23270      0.00000     0.76534    0.00196     0.76730
      C   56   -0.41793      1.99935     4.40598    0.01260     6.41793
      C   57   -0.42435      1.99936     4.41317    0.01181     6.42435
      H   58    0.23111      0.00000     0.76692    0.00197     0.76889
      C   59   -0.41883      1.99936     4.40722    0.01225     6.41883
      H   60    0.22529      0.00000     0.77276    0.00195     0.77471
      H   61    0.22789      0.00000     0.77060    0.00151     0.77211
      H   62    0.21489      0.00000     0.78316    0.00195     0.78511
      H   63    0.23310      0.00000     0.76500    0.00191     0.76690
      H   64    0.21522      0.00000     0.78317    0.00161     0.78478
      H   65    0.21446      0.00000     0.78357    0.00197     0.78554
      H   66    0.22859      0.00000     0.76996    0.00145     0.77141
      H   67    0.21602      0.00000     0.78250    0.00148     0.78398
      H   68    0.23361      0.00000     0.76447    0.00192     0.76639
      C   69   -0.61947      1.99941     4.61273    0.00733     6.61947
      H   70    0.22357      0.00000     0.77515    0.00128     0.77643
      H   71    0.22808      0.00000     0.77057    0.00135     0.77192
      H   72    0.21817      0.00000     0.78059    0.00125     0.78183
      C   73   -0.61870      1.99941     4.61197    0.00732     6.61870
      H   74    0.22795      0.00000     0.77067    0.00138     0.77205
      H   75    0.22042      0.00000     0.77832    0.00126     0.77958
      H   76    0.22064      0.00000     0.77811    0.00125     0.77936
 =======================================================================
   * Total *    1.00000    125.94940   195.30592    0.74468   322.00000

 Normal termination of Gaussian 16 at Tue Jan 21 16:49:45 2025.
