 Gaussian 16, Revision B.01,
 Gaussian 16:  ES64L-G16RevB.01 20-Dec-2017

 ------------------------------------------
 # nmr=giao b3lyp/genecp pop=nbo scfcyc=200
 ------------------------------------------

 ---------
 MB-88_SPE
 ---------
 Symbolic Z-matrix:
 Charge =  1 Multiplicity = 1

                         Standard orientation:
 ---------------------------------------------------------------------
 Center     Atomic      Atomic             Coordinates (Angstroms)
 Number     Number       Type             X           Y           Z
 ---------------------------------------------------------------------
      1         15           0       -1.302172   -0.211207   -0.612700
      2          6           0       -2.500373   -1.517105   -1.120400
      3          6           0       -2.030505   -2.781206   -1.487880
      4          6           0       -2.934057   -3.790074   -1.797230
      5          6           0       -4.301917   -3.552842   -1.727070
      6          6           0       -4.794465   -2.302512   -1.347470
      7          6           0       -3.877333   -1.293693   -1.042920
      8          1           0       -4.250382   -0.319732   -0.752110
      9          1           0       -4.995868   -4.350111   -1.966540
     10          1           0       -2.570018   -4.767145   -2.089940
     11          1           0       -0.968566   -2.990037   -1.529380
     12          6           0       -2.188959    1.388144   -0.786200
     13          6           0       -2.370768    2.197825    0.336210
     14          6           0       -3.044666    3.418396    0.249650
     15          6           0       -3.525586    3.815846   -0.999260
     16          6           0       -3.346967    3.018986   -2.125570
     17          6           0       -2.681919    1.803955   -2.026120
     18          1           0       -2.558309    1.186685   -2.907680
     19          1           0       -3.727146    3.347787   -3.084790
     20          1           0       -4.045674    4.762227   -1.093570
     21          1           0       -1.972118    1.877734    1.291770
     22          6           0        0.076959   -0.171529   -1.883700
     23         15           0        1.452839    0.206559   -0.664940
     24          6           0        2.959018   -0.710893   -1.200670
     25          6           0        4.208349   -0.091565   -1.233270
     26          6           0        5.336168   -0.837057   -1.567070
     27          6           0        5.224926   -2.187207   -1.865150
     28          6           0        3.982945   -2.831245   -1.829620
     29          6           0        2.862566   -2.078853   -1.483620
     30          1           0        1.901575   -2.578522   -1.429290
     31          1           0        6.111685   -2.753408   -2.125640
     32          1           0        6.305758   -0.355588   -1.595490
     33          1           0        4.308680    0.962015   -1.011020
     34          6           0        1.830792    1.990058   -0.892680
     35          6           0        2.161683    2.494498   -2.153210
     36          6           0        2.443135    3.847028   -2.297570
     37          6           0        2.396696    4.694908   -1.196220
     38          6           0        2.064495    4.213338    0.071760
     39          6           0        1.782143    2.852209    0.204500
     40          1           0        1.511602    2.459789    1.177410
     41          1           0        2.623307    5.747257   -1.324160
     42          1           0        2.703485    4.241577   -3.271880
     43          1           0        2.214812    1.841168   -3.015630
     44          1           0        0.220147   -1.165199   -2.306360
     45          1           0       -0.046330    0.546551   -2.693160
     46         45           0        0.190158   -0.514369    1.196650
     47          6           0       -1.158232   -0.846407    3.000320
     48          6           0       -1.040764   -2.034447    2.308410
     49          6           0        1.830917   -1.526142    2.408880
     50          6           0        1.691768   -0.225691    2.847740
     51          6           0       -0.424572   -0.494868    4.281480
     52          1           0       -2.029372   -0.238686    2.778300
     53          1           0       -1.838895   -2.287816    1.619070
     54          6           0       -0.113596   -3.180139    2.631740
     55          6           0        1.289425   -2.755701    3.114680
     56          1           0        2.600506   -1.713933    1.668570
     57          6           0        0.912269    0.244630    4.051340
     58          1           0        2.391800    0.503178    2.450990
     59          1           0       -1.070731    0.142423    4.887500
     60          1           0       -0.261433   -1.397898    4.869370
     61          1           0       -0.582107   -3.832758    3.379250
     62          1           0       -0.013207   -3.787109    1.729500
     63          1           0        1.285935   -2.586831    4.191320
     64          1           0        1.979563   -3.583562    2.943670
     65          1           0        0.710981    1.310520    3.920400
     66          1           0        1.536019    0.169299    4.950790
     67          6           0        3.866492   -4.294815   -2.168110
     68          1           0        2.883612   -4.689693   -1.908980
     69          1           0        4.019672   -4.461055   -3.237670
     70          1           0        4.617832   -4.884256   -1.639190
     71          6           0        1.996616    5.142708    1.255930
     72          1           0        2.878597    5.783807    1.306610
     73          1           0        1.123937    5.797880    1.189240
     74          1           0        1.927326    4.591308    2.193950
     75          6           0       -3.265115    4.272626    1.471280
     76          1           0       -3.141023    5.332256    1.242700
     77          1           0       -4.278815    4.141948    1.860280
     78          1           0       -2.570255    4.014125    2.271010
     79          6           0       -6.276894   -2.038939   -1.295530
     80          1           0       -6.508263   -1.174519   -0.672660
     81          1           0       -6.670754   -1.839709   -2.296140
     82          1           0       -6.818716   -2.898999   -0.899220
 ---------------------------------------------------------------------

 SCF Done:  E(RB3LYP) =  -2228.93640091     A.U. after   16 cycles

      1  P    Isotropic =   315.5319   Anisotropy =   110.4129

      2  C    Isotropic =    43.1537   Anisotropy =   164.9654

      3  C    Isotropic =    53.1666   Anisotropy =   179.3709

      4  C    Isotropic =    49.4595   Anisotropy =   185.1932

      5  C    Isotropic =    46.0371   Anisotropy =   177.1896

      6  C    Isotropic =    34.8421   Anisotropy =   205.2101

      7  C    Isotropic =    46.4954   Anisotropy =   169.1245

      8  H    Isotropic =    25.3603   Anisotropy =    14.7784

      9  H    Isotropic =    24.2362   Anisotropy =     5.9604

     10  H    Isotropic =    24.0205   Anisotropy =     6.4959

     11  H    Isotropic =    23.9154   Anisotropy =     9.9966

     12  C    Isotropic =    46.7389   Anisotropy =   171.6836

     13  C    Isotropic =    40.7650   Anisotropy =   158.2317

     14  C    Isotropic =    36.3648   Anisotropy =   203.7264

     15  C    Isotropic =    44.7331   Anisotropy =   181.5240

     16  C    Isotropic =    48.6608   Anisotropy =   188.5159

     17  C    Isotropic =    49.8678   Anisotropy =   186.5850

     18  H    Isotropic =    24.7706   Anisotropy =    10.4283

     19  H    Isotropic =    24.4036   Anisotropy =     5.1979

     20  H    Isotropic =    24.2982   Anisotropy =     5.4418

     21  H    Isotropic =    23.9227   Anisotropy =    11.4511

     22  C    Isotropic =   126.5854   Anisotropy =    44.2427

     23  P    Isotropic =   317.4327   Anisotropy =   114.2523

     24  C    Isotropic =    43.4565   Anisotropy =   163.9429

     25  C    Isotropic =    49.6005   Anisotropy =   188.0951

     26  C    Isotropic =    49.4807   Anisotropy =   185.7128

     27  C    Isotropic =    45.9777   Anisotropy =   178.9571

     28  C    Isotropic =    35.4775   Anisotropy =   203.9678

     29  C    Isotropic =    49.1714   Anisotropy =   158.4784

     30  H    Isotropic =    23.9293   Anisotropy =    12.3795

     31  H    Isotropic =    24.2549   Anisotropy =     6.0106

     32  H    Isotropic =    24.4986   Anisotropy =     6.4800

     33  H    Isotropic =    25.3396   Anisotropy =    12.7386

     34  C    Isotropic =    46.4760   Anisotropy =   170.1159

     35  C    Isotropic =    49.6133   Anisotropy =   186.1092

     36  C    Isotropic =    48.7787   Anisotropy =   188.1801

     37  C    Isotropic =    44.7189   Anisotropy =   182.8941

     38  C    Isotropic =    36.4499   Anisotropy =   203.4409

     39  C    Isotropic =    41.4321   Anisotropy =   156.7091

     40  H    Isotropic =    23.9852   Anisotropy =    11.0571

     41  H    Isotropic =    24.2806   Anisotropy =     5.6716

     42  H    Isotropic =    24.3835   Anisotropy =     5.3078

     43  H    Isotropic =    24.7640   Anisotropy =    10.6321

     44  H    Isotropic =    27.3463   Anisotropy =     2.7663

     45  H    Isotropic =    28.1506   Anisotropy =     8.3581

     46  Rh   Isotropic =  -310.6165   Anisotropy =   337.2863

     47  C    Isotropic =    81.4514   Anisotropy =   116.5001

     48  C    Isotropic =    71.7224   Anisotropy =   124.1487

     49  C    Isotropic =    73.7060   Anisotropy =   128.9928

     50  C    Isotropic =    79.8320   Anisotropy =   111.2610

     51  C    Isotropic =   154.0384   Anisotropy =    24.7121

     52  H    Isotropic =    26.9846   Anisotropy =     6.9097

     53  H    Isotropic =    27.0488   Anisotropy =     4.3912

     54  C    Isotropic =   147.5874   Anisotropy =    29.2526

     55  C    Isotropic =   153.6661   Anisotropy =    25.3267

     56  H    Isotropic =    27.4125   Anisotropy =     5.5381

     57  C    Isotropic =   147.8537   Anisotropy =    29.6213

     58  H    Isotropic =    26.5127   Anisotropy =     4.6510

     59  H    Isotropic =    29.7420   Anisotropy =    11.6430

     60  H    Isotropic =    29.7493   Anisotropy =     9.4902

     61  H    Isotropic =    29.3030   Anisotropy =    12.2539

     62  H    Isotropic =    29.1331   Anisotropy =     7.2449

     63  H    Isotropic =    29.8351   Anisotropy =     9.5133

     64  H    Isotropic =    29.9899   Anisotropy =    10.8508

     65  H    Isotropic =    28.8824   Anisotropy =     8.5653

     66  H    Isotropic =    29.0048   Anisotropy =    12.5918

     67  C    Isotropic =   161.6042   Anisotropy =    41.7072

     68  H    Isotropic =    29.6276   Anisotropy =     5.7790

     69  H    Isotropic =    29.0244   Anisotropy =     9.4733

     70  H    Isotropic =    29.1470   Anisotropy =     8.9250

     71  C    Isotropic =   162.1009   Anisotropy =    40.7237

     72  H    Isotropic =    29.2695   Anisotropy =     9.9858

     73  H    Isotropic =    29.2957   Anisotropy =     7.7969

     74  H    Isotropic =    29.8003   Anisotropy =     5.0804

     75  C    Isotropic =   162.0013   Anisotropy =    40.8817

     76  H    Isotropic =    29.3884   Anisotropy =     8.5842

     77  H    Isotropic =    29.1618   Anisotropy =     9.5350

     78  H    Isotropic =    29.7100   Anisotropy =     5.1609

     79  C    Isotropic =   162.0202   Anisotropy =    42.1298

     80  H    Isotropic =    30.1276   Anisotropy =     5.6966

     81  H    Isotropic =    29.4176   Anisotropy =     9.2886

     82  H    Isotropic =    29.5436   Anisotropy =     9.4190

 The electronic state is 1-A.
 Alpha  occ. eigenvalues --  -77.23397 -77.23380 -10.29847 -10.29156 -10.29106
 Alpha  occ. eigenvalues --  -10.29057 -10.29021 -10.28782 -10.28736 -10.28666
 Alpha  occ. eigenvalues --  -10.28515 -10.28145 -10.28089 -10.28065 -10.27912
 Alpha  occ. eigenvalues --  -10.27784 -10.27746 -10.27700 -10.27690 -10.27656
 Alpha  occ. eigenvalues --  -10.27643 -10.27391 -10.27371 -10.27325 -10.27266
 Alpha  occ. eigenvalues --  -10.27193 -10.27141 -10.27130 -10.27107 -10.27049
 Alpha  occ. eigenvalues --  -10.26994 -10.26937 -10.26898 -10.26675 -10.26669
 Alpha  occ. eigenvalues --  -10.25540 -10.25473 -10.25400 -10.24989  -6.69373
 Alpha  occ. eigenvalues --   -6.69355  -4.85657  -4.85639  -4.85595  -4.85576
 Alpha  occ. eigenvalues --   -4.85275  -4.85259  -3.31327  -2.08216  -2.07536
 Alpha  occ. eigenvalues --   -2.04811  -0.96637  -0.96452  -0.95933  -0.95906
 Alpha  occ. eigenvalues --   -0.94187  -0.89707  -0.88890  -0.88038  -0.87776
 Alpha  occ. eigenvalues --   -0.87088  -0.86904  -0.86448  -0.85801  -0.84689
 Alpha  occ. eigenvalues --   -0.84506  -0.83511  -0.80088  -0.78341  -0.78249
 Alpha  occ. eigenvalues --   -0.77982  -0.77901  -0.77566  -0.75300  -0.72887
 Alpha  occ. eigenvalues --   -0.70634  -0.70336  -0.70171  -0.69583  -0.69456
 Alpha  occ. eigenvalues --   -0.68568  -0.68168  -0.65593  -0.65087  -0.64881
 Alpha  occ. eigenvalues --   -0.62208  -0.61366  -0.60904  -0.60834  -0.59843
 Alpha  occ. eigenvalues --   -0.59683  -0.57240  -0.56934  -0.56633  -0.56552
 Alpha  occ. eigenvalues --   -0.56485  -0.56045  -0.55173  -0.54996  -0.54231
 Alpha  occ. eigenvalues --   -0.53948  -0.53441  -0.53404  -0.52695  -0.52401
 Alpha  occ. eigenvalues --   -0.52289  -0.51351  -0.51257  -0.51171  -0.51108
 Alpha  occ. eigenvalues --   -0.51061  -0.50932  -0.50784  -0.50759  -0.50466
 Alpha  occ. eigenvalues --   -0.49469  -0.48451  -0.48333  -0.47931  -0.47852
 Alpha  occ. eigenvalues --   -0.47791  -0.47483  -0.47384  -0.46893  -0.46147
 Alpha  occ. eigenvalues --   -0.45901  -0.45821  -0.45736  -0.45446  -0.44966
 Alpha  occ. eigenvalues --   -0.44424  -0.44333  -0.44195  -0.44157  -0.43260
 Alpha  occ. eigenvalues --   -0.42925  -0.42861  -0.42697  -0.42591  -0.42266
 Alpha  occ. eigenvalues --   -0.40997  -0.37725  -0.37141  -0.36277  -0.35565
 Alpha  occ. eigenvalues --   -0.35407  -0.35081  -0.34868  -0.34602  -0.34423
 Alpha  occ. eigenvalues --   -0.34290  -0.34018  -0.33851  -0.33567  -0.30508
 Alpha virt. eigenvalues --   -0.16115  -0.14593  -0.13536  -0.12836  -0.12687
 Alpha virt. eigenvalues --   -0.11564  -0.11141  -0.10299  -0.10141  -0.09954
 Alpha virt. eigenvalues --   -0.09126  -0.07710  -0.07017  -0.06318  -0.05967

 Mulliken charges:
               1
     1  P    0.305750
     2  C   -0.155666
     3  C   -0.072780
     4  C   -0.086369
     5  C   -0.119249
     6  C    0.075790
     7  C   -0.079815
     8  H    0.162740
     9  H    0.131602
    10  H    0.123767
    11  H    0.135010
    12  C   -0.195754
    13  C   -0.042796
    14  C    0.088570
    15  C   -0.124799
    16  C   -0.048586
    17  C   -0.112022
    18  H    0.141481
    19  H    0.130452
    20  H    0.132504
    21  H    0.135421
    22  C   -0.593491
    23  P    0.278248
    24  C   -0.153034
    25  C   -0.073830
    26  C   -0.070533
    27  C   -0.113205
    28  C    0.061735
    29  C   -0.069159
    30  H    0.145935
    31  H    0.133181
    32  H    0.130448
    33  H    0.157553
    34  C   -0.181553
    35  C   -0.114502
    36  C   -0.045546
    37  C   -0.123238
    38  C    0.082892
    39  C   -0.045022
    40  H    0.148902
    41  H    0.133235
    42  H    0.130859
    43  H    0.143261
    44  H    0.207278
    45  H    0.211826
    46  Rh  -0.492791
    47  C   -0.004032
    48  C   -0.111732
    49  C   -0.027002
    50  C   -0.085897
    51  C   -0.350585
    52  H    0.172853
    53  H    0.219841
    54  C   -0.229549
    55  C   -0.357172
    56  H    0.210163
    57  C   -0.222881
    58  H    0.182385
    59  H    0.167486
    60  H    0.166782
    61  H    0.170800
    62  H    0.129141
    63  H    0.166233
    64  H    0.167496
    65  H    0.125111
    66  H    0.171809
    67  C   -0.452194
    68  H    0.126639
    69  H    0.157439
    70  H    0.147825
    71  C   -0.463593
    72  H    0.150274
    73  H    0.152328
    74  H    0.132023
    75  C   -0.461376
    76  H    0.145017
    77  H    0.158794
    78  H    0.131699
    79  C   -0.439518
    80  H    0.136246
    81  H    0.157938
    82  H    0.144509
 Sum of Mulliken charges =   1.00000

 Dipole moment (field-independent basis, Debye):
    X=             -0.2823    Y=              0.1522    Z=             -0.0422  Tot=              0.3235
 Quadrupole moment (field-independent basis, Debye-Ang):
   XX=           -207.4159   YY=           -204.2754   ZZ=           -231.7409
   XY=             -2.6927   XZ=             -0.7012   YZ=              2.8502

 Summary of Natural Population Analysis:

                                       Natural Population
                Natural  -----------------------------------------------
    Atom  No    Charge         Core      Valence    Rydberg      Total
 -----------------------------------------------------------------------
      P    1    1.11935      9.99648     3.83313    0.05104    13.88065
      C    2   -0.33068      1.99899     4.30826    0.02343     6.33068
      C    3   -0.21054      1.99908     4.19624    0.01522     6.21054
      C    4   -0.18436      1.99920     4.17040    0.01476     6.18436
      C    5   -0.18273      1.99911     4.17000    0.01362     6.18273
      C    6    0.00332      1.99914     3.98235    0.01519     5.99668
      C    7   -0.19726      1.99901     4.18384    0.01441     6.19726
      H    8    0.21869      0.00000     0.77874    0.00257     0.78131
      H    9    0.21776      0.00000     0.78095    0.00130     0.78224
      H   10    0.21975      0.00000     0.77902    0.00124     0.78025
      H   11    0.20479      0.00000     0.79317    0.00205     0.79521
      C   12   -0.33820      1.99900     4.31461    0.02459     6.33820
      C   13   -0.18319      1.99902     4.16894    0.01523     6.18319
      C   14   -0.00622      1.99913     3.99209    0.01500     6.00622
      C   15   -0.17632      1.99911     4.16378    0.01344     6.17632
      C   16   -0.18465      1.99920     4.17062    0.01483     6.18465
      C   17   -0.20030      1.99909     4.18506    0.01615     6.20030
      H   18    0.21533      0.00000     0.78264    0.00203     0.78467
      H   19    0.22192      0.00000     0.77686    0.00122     0.77808
      H   20    0.21716      0.00000     0.78156    0.00128     0.78284
      H   21    0.21392      0.00000     0.78354    0.00255     0.78608
      C   22   -0.96378      1.99942     4.94653    0.01783     6.96378
      P   23    1.12150      9.99649     3.83165    0.05037    13.87850
      C   24   -0.33130      1.99899     4.30868    0.02362     6.33130
      C   25   -0.20311      1.99909     4.18891    0.01510     6.20311
      C   26   -0.18160      1.99920     4.16772    0.01468     6.18160
      C   27   -0.18130      1.99911     4.16864    0.01355     6.18130
      C   28   -0.00130      1.99913     3.98695    0.01521     6.00130
      C   29   -0.20214      1.99900     4.18874    0.01439     6.20214
      H   30    0.20101      0.00000     0.79627    0.00273     0.79899
      H   31    0.21772      0.00000     0.78101    0.00128     0.78228
      H   32    0.22187      0.00000     0.77692    0.00121     0.77813
      H   33    0.22422      0.00000     0.77404    0.00174     0.77578
      C   34   -0.33995      1.99900     4.31690    0.02405     6.33995
      C   35   -0.20011      1.99908     4.18524    0.01579     6.20011
      C   36   -0.18465      1.99920     4.17086    0.01458     6.18465
      C   37   -0.17537      1.99911     4.16291    0.01335     6.17537
      C   38   -0.00591      1.99913     3.99165    0.01513     6.00591
      C   39   -0.18240      1.99901     4.16879    0.01460     6.18240
      H   40    0.21222      0.00000     0.78497    0.00281     0.78778
      H   41    0.21727      0.00000     0.78144    0.00128     0.78273
      H   42    0.22204      0.00000     0.77672    0.00123     0.77796
      H   43    0.21572      0.00000     0.78223    0.00205     0.78428
      H   44    0.25782      0.00000     0.74062    0.00156     0.74218
      H   45    0.25779      0.00000     0.74037    0.00184     0.74221
     Rh   46   -0.40440     35.98587     9.38930    0.02923    45.40440
      C   47   -0.18669      1.99907     4.16819    0.01943     6.18669
      C   48   -0.14939      1.99907     4.13050    0.01981     6.14939
      C   49   -0.15726      1.99906     4.13892    0.01928     6.15726
      C   50   -0.17565      1.99907     4.15682    0.01975     6.17565
      C   51   -0.42201      1.99936     4.41097    0.01168     6.42201
      H   52    0.22502      0.00000     0.77314    0.00184     0.77498
      H   53    0.23265      0.00000     0.76542    0.00193     0.76735
      C   54   -0.41772      1.99935     4.40580    0.01257     6.41772
      C   55   -0.42410      1.99936     4.41297    0.01177     6.42410
      H   56    0.23193      0.00000     0.76611    0.00197     0.76807
      C   57   -0.41703      1.99935     4.40503    0.01264     6.41703
      H   58    0.22588      0.00000     0.77232    0.00180     0.77412
      H   59    0.22727      0.00000     0.77122    0.00150     0.77273
      H   60    0.21480      0.00000     0.78320    0.00200     0.78520
      H   61    0.23276      0.00000     0.76531    0.00193     0.76724
      H   62    0.21541      0.00000     0.78302    0.00156     0.78459
      H   63    0.21428      0.00000     0.78375    0.00196     0.78572
      H   64    0.22815      0.00000     0.77040    0.00146     0.77185
      H   65    0.21204      0.00000     0.78635    0.00161     0.78796
      H   66    0.23317      0.00000     0.76489    0.00194     0.76683
      C   67   -0.61473      1.99941     4.60813    0.00719     6.61473
      H   68    0.20984      0.00000     0.78902    0.00114     0.79016
      H   69    0.22671      0.00000     0.77200    0.00129     0.77329
      H   70    0.22424      0.00000     0.77455    0.00122     0.77576
      C   71   -0.61432      1.99941     4.60777    0.00714     6.61432
      H   72    0.22528      0.00000     0.77351    0.00120     0.77472
      H   73    0.22351      0.00000     0.77516    0.00133     0.77649
      H   74    0.21141      0.00000     0.78746    0.00113     0.78859
      C   75   -0.61430      1.99941     4.60778    0.00712     6.61430
      H   76    0.22233      0.00000     0.77645    0.00122     0.77767
      H   77    0.22595      0.00000     0.77272    0.00132     0.77405
      H   78    0.21190      0.00000     0.78698    0.00113     0.78810
      C   79   -0.61567      1.99941     4.60901    0.00725     6.61567
      H   80    0.21583      0.00000     0.78307    0.00110     0.78417
      H   81    0.22626      0.00000     0.77241    0.00133     0.77374
      H   82    0.22287      0.00000     0.77593    0.00119     0.77713
 =======================================================================
   * Total *    1.00000    129.94775   207.29017    0.76208   338.00000

 Normal termination of Gaussian 16 at Tue Jan 21 17:00:10 2025.
