 Gaussian 16, Revision B.01,
 Gaussian 16:  ES64L-G16RevB.01 20-Dec-2017

 ------------------------------------------
 # nmr=giao b3lyp/genecp pop=nbo scfcyc=200
 ------------------------------------------

 ---------
 MB-97_SPE
 ---------
 Symbolic Z-matrix:
 Charge =  1 Multiplicity = 1

                         Standard orientation:
 ---------------------------------------------------------------------
 Center     Atomic      Atomic             Coordinates (Angstroms)
 Number     Number       Type             X           Y           Z
 ---------------------------------------------------------------------
      1         45           0        0.249920   -0.424730    1.242600
      2         15           0        0.469019   -1.294550   -0.955710
      3         15           0       -0.684669    1.166151   -0.255950
      4          6           0        1.827139   -1.543692    2.387360
      5          1           0        2.551238   -1.789982    1.618820
      6          6           0        0.688458   -2.317041    2.457700
      7          1           0        0.593077   -3.116641    1.731870
      8          6           0       -0.240942   -2.408550    3.652520
      9          1           0        0.329518   -2.277360    4.571760
     10          1           0       -0.653383   -3.417949    3.699230
     11          6           0       -1.409881   -1.403219    3.594780
     12          1           0       -2.208892   -1.819598    2.977750
     13          1           0       -1.839871   -1.273298    4.596110
     14          6           0       -1.048540   -0.054699    3.022250
     15          1           0       -1.895850    0.496432    2.629030
     16          6           0        0.117551    0.654530    3.240030
     17          1           0        0.107722    1.704680    2.971480
     18          6           0        1.250560    0.229159    4.154720
     19          1           0        0.850420   -0.326301    5.003000
     20          1           0        1.712601    1.123898    4.575010
     21          6           0        2.343549   -0.592772    3.438000
     22          1           0        3.041150    0.089777    2.948090
     23          1           0        2.936569   -1.146443    4.176830
     24          6           0        3.299639   -0.883623   -1.569620
     25          6           0        4.067258   -1.595894   -0.642800
     26          1           0        3.735548   -2.565164   -0.290240
     27          6           0        5.275479   -1.090445   -0.176330
     28          1           0        5.859038   -1.664036    0.533290
     29          6           0        5.743630    0.139375   -0.629160
     30          1           0        6.689141    0.527824   -0.272640
     31          6           0        4.996411    0.854935   -1.557590
     32          1           0        5.360382    1.803345   -1.932980
     33          6           0        3.787850    0.345476   -2.021840
     34          1           0        3.227831    0.901387   -2.765920
     35          6           0        1.994759   -1.414472   -2.110030
     36          1           0        1.710039   -0.796842   -2.965340
     37          6           0        2.006187   -2.886502   -2.574680
     38          1           0        2.576147   -2.975682   -3.501420
     39          1           0        2.508647   -3.514012   -1.835250
     40          6           0        0.561257   -3.352191   -2.744910
     41          1           0        0.501926   -4.423300   -2.948880
     42          1           0        0.107687   -2.840220   -3.596670
     43          6           0       -0.190373   -3.017040   -1.444710
     44          1           0        0.209077   -3.661970   -0.656780
     45          6           0       -1.691063   -3.165438   -1.444650
     46          6           0       -2.472543   -2.869908   -2.566860
     47          1           0       -2.007402   -2.536428   -3.485820
     48          6           0       -3.855753   -3.022546   -2.534610
     49          1           0       -4.439003   -2.801826   -3.420050
     50          6           0       -4.486073   -3.470216   -1.379120
     51          1           0       -5.560933   -3.597755   -1.358120
     52          6           0       -3.721664   -3.769556   -0.255660
     53          1           0       -4.200234   -4.134936    0.644590
     54          6           0       -2.340643   -3.618138   -0.291000
     55          1           0       -1.754884   -3.871888    0.584980
     56          6           0       -0.661900   -0.010079   -1.711680
     57          1           0       -1.650510   -0.451468   -1.844400
     58          1           0       -0.338980    0.416130   -2.662300
     59          6           0       -2.460208    1.767672   -0.079020
     60          6           0       -2.602807    2.909473    0.945230
     61          6           0       -3.199338    2.110303   -1.385820
     62          1           0       -2.943569    0.878313    0.344690
     63          6           0       -4.082247    3.214584    1.221470
     64          1           0       -2.121906    3.810952    0.554520
     65          1           0       -2.093047    2.663912    1.880340
     66          6           0       -4.679418    2.410874   -1.102610
     67          1           0       -2.741837    2.982853   -1.856950
     68          1           0       -3.124809    1.288753   -2.101430
     69          6           0       -4.844597    3.528635   -0.068910
     70          1           0       -4.157066    4.050184    1.921390
     71          1           0       -4.541498    2.351494    1.716470
     72          1           0       -5.179507    2.679345   -2.036270
     73          1           0       -5.168299    1.500395   -0.738400
     74          1           0       -5.903266    3.685836    0.149300
     75          1           0       -4.472126    4.469554   -0.489580
     76          6           0        0.508402    2.532380   -0.758920
     77          6           0        0.039643    3.436430   -1.912050
     78          6           0        1.013003    3.369669    0.431100
     79          1           0        1.363692    1.944749   -1.115900
     80          6           0        1.161124    4.391149   -2.348570
     81          1           0       -0.817886    4.030581   -1.585060
     82          1           0       -0.295877    2.842530   -2.766210
     83          6           0        2.121724    4.336018   -0.010140
     84          1           0        0.187014    3.943980    0.861090
     85          1           0        1.387903    2.710339    1.216200
     86          6           0        1.676765    5.226578   -1.173580
     87          1           0        0.794865    5.040499   -3.147410
     88          1           0        1.986864    3.809818   -2.774340
     89          1           0        2.430305    4.948158    0.840790
     90          1           0        3.000944    3.755477   -0.310790
     91          1           0        2.503086    5.863138   -1.498050
     92          1           0        0.882186    5.900299   -0.833320
 ---------------------------------------------------------------------

 SCF Done:  E(RB3LYP) =  -2234.96830661     A.U. after   15 cycles

      1  Rh   Isotropic =  -329.1026   Anisotropy =   396.1312

      2  P    Isotropic =   292.6983   Anisotropy =   155.2358

      3  P    Isotropic =   310.6296   Anisotropy =    94.3122

      4  C    Isotropic =    76.0789   Anisotropy =   118.9808

      5  H    Isotropic =    26.3045   Anisotropy =     6.7200

      6  C    Isotropic =    80.0056   Anisotropy =   119.1113

      7  H    Isotropic =    26.9754   Anisotropy =     4.9116

      8  C    Isotropic =   154.4240   Anisotropy =    24.0203

      9  H    Isotropic =    29.9042   Anisotropy =     9.5320

     10  H    Isotropic =    29.8398   Anisotropy =    10.8693

     11  C    Isotropic =   146.9523   Anisotropy =    30.5814

     12  H    Isotropic =    29.1695   Anisotropy =     7.4866

     13  H    Isotropic =    29.2088   Anisotropy =    12.6217

     14  C    Isotropic =    76.7750   Anisotropy =   116.9320

     15  H    Isotropic =    26.6547   Anisotropy =     4.4222

     16  C    Isotropic =    84.7950   Anisotropy =   115.0758

     17  H    Isotropic =    27.4400   Anisotropy =     5.4130

     18  C    Isotropic =   154.8135   Anisotropy =    23.8386

     19  H    Isotropic =    30.0672   Anisotropy =     9.8368

     20  H    Isotropic =    30.1416   Anisotropy =    11.1125

     21  C    Isotropic =   148.4007   Anisotropy =    28.9571

     22  H    Isotropic =    29.6557   Anisotropy =     7.3918

     23  H    Isotropic =    29.3495   Anisotropy =    12.2638

     24  C    Isotropic =    38.9045   Anisotropy =   194.9423

     25  C    Isotropic =    52.7755   Anisotropy =   182.5495

     26  H    Isotropic =    24.5401   Anisotropy =     9.2206

     27  C    Isotropic =    48.7325   Anisotropy =   190.7299

     28  H    Isotropic =    24.1269   Anisotropy =     5.7033

     29  C    Isotropic =    49.1072   Anisotropy =   191.0362

     30  H    Isotropic =    24.1655   Anisotropy =     3.5824

     31  C    Isotropic =    48.7021   Anisotropy =   189.0490

     32  H    Isotropic =    24.1981   Anisotropy =     5.5487

     33  C    Isotropic =    49.2199   Anisotropy =   158.9949

     34  H    Isotropic =    24.5263   Anisotropy =     7.5537

     35  C    Isotropic =   118.2940   Anisotropy =    25.0519

     36  H    Isotropic =    28.5724   Anisotropy =     6.1257

     37  C    Isotropic =   144.8668   Anisotropy =    28.3032

     38  H    Isotropic =    29.4277   Anisotropy =    10.1889

     39  H    Isotropic =    29.7293   Anisotropy =     7.4314

     40  C    Isotropic =   148.3082   Anisotropy =    24.8817

     41  H    Isotropic =    29.5117   Anisotropy =    10.8469

     42  H    Isotropic =    29.6463   Anisotropy =     7.9856

     43  C    Isotropic =   125.4913   Anisotropy =    34.7983

     44  H    Isotropic =    28.2028   Anisotropy =     4.9966

     45  C    Isotropic =    43.3642   Anisotropy =   187.9271

     46  C    Isotropic =    52.0758   Anisotropy =   185.1925

     47  H    Isotropic =    24.4845   Anisotropy =    10.2809

     48  C    Isotropic =    49.0920   Anisotropy =   190.2941

     49  H    Isotropic =    24.0818   Anisotropy =     5.2580

     50  C    Isotropic =    49.3436   Anisotropy =   191.2656

     51  H    Isotropic =    24.1564   Anisotropy =     3.3574

     52  C    Isotropic =    48.9852   Anisotropy =   188.5765

     53  H    Isotropic =    24.1172   Anisotropy =     5.9354

     54  C    Isotropic =    48.6803   Anisotropy =   163.2689

     55  H    Isotropic =    24.2931   Anisotropy =     7.7855

     56  C    Isotropic =   141.2680   Anisotropy =    46.5644

     57  H    Isotropic =    28.8857   Anisotropy =     7.9412

     58  H    Isotropic =    29.5006   Anisotropy =     7.2520

     59  C    Isotropic =   134.2562   Anisotropy =    31.4631

     60  C    Isotropic =   151.6205   Anisotropy =    12.3673

     61  C    Isotropic =   152.6894   Anisotropy =    14.3879

     62  H    Isotropic =    30.7430   Anisotropy =     5.7006

     63  C    Isotropic =   153.7669   Anisotropy =     8.0298

     64  H    Isotropic =    30.6092   Anisotropy =     6.5454

     65  H    Isotropic =    30.8339   Anisotropy =     6.6758

     66  C    Isotropic =   153.5178   Anisotropy =     8.8509

     67  H    Isotropic =    30.6535   Anisotropy =     6.3392

     68  H    Isotropic =    30.6422   Anisotropy =     6.5560

     69  C    Isotropic =   155.8326   Anisotropy =     1.8631

     70  H    Isotropic =    30.2122   Anisotropy =    10.6062

     71  H    Isotropic =    30.8877   Anisotropy =     7.1325

     72  H    Isotropic =    30.2138   Anisotropy =    10.3145

     73  H    Isotropic =    31.0307   Anisotropy =     7.5827

     74  H    Isotropic =    30.2694   Anisotropy =    11.7687

     75  H    Isotropic =    30.7076   Anisotropy =     9.0731

     76  C    Isotropic =   132.9260   Anisotropy =    32.9355

     77  C    Isotropic =   152.0938   Anisotropy =    14.9838

     78  C    Isotropic =   148.6939   Anisotropy =    16.1520

     79  H    Isotropic =    30.0502   Anisotropy =     6.7625

     80  C    Isotropic =   152.9799   Anisotropy =     7.6782

     81  H    Isotropic =    30.4638   Anisotropy =     7.7326

     82  H    Isotropic =    30.0794   Anisotropy =     4.4066

     83  C    Isotropic =   153.6216   Anisotropy =     7.6774

     84  H    Isotropic =    30.5380   Anisotropy =     5.3069

     85  H    Isotropic =    30.0643   Anisotropy =     8.5870

     86  C    Isotropic =   155.6521   Anisotropy =     2.3205

     87  H    Isotropic =    29.9284   Anisotropy =    10.6950

     88  H    Isotropic =    30.5795   Anisotropy =     6.8616

     89  H    Isotropic =    30.1691   Anisotropy =    10.0671

     90  H    Isotropic =    30.6740   Anisotropy =     7.6767

     91  H    Isotropic =    30.1098   Anisotropy =    11.4899

     92  H    Isotropic =    30.6057   Anisotropy =     9.1625

 The electronic state is 1-A.
 Alpha  occ. eigenvalues --  -77.22773 -77.22486 -10.30271 -10.30223 -10.29738
 Alpha  occ. eigenvalues --  -10.29341 -10.29280 -10.29151 -10.28857 -10.28780
 Alpha  occ. eigenvalues --  -10.28577 -10.28562 -10.28422 -10.27919 -10.27896
 Alpha  occ. eigenvalues --  -10.27471 -10.27288 -10.27273 -10.27126 -10.27081
 Alpha  occ. eigenvalues --  -10.27040 -10.26986 -10.26945 -10.26937 -10.26928
 Alpha  occ. eigenvalues --  -10.26727 -10.26716 -10.26700 -10.26685 -10.26635
 Alpha  occ. eigenvalues --  -10.26595 -10.26458 -10.26364 -10.25545 -10.25490
 Alpha  occ. eigenvalues --  -10.25360 -10.25314 -10.24882 -10.24851  -6.68785
 Alpha  occ. eigenvalues --   -6.68517  -4.85061  -4.84986  -4.84813  -4.84701
 Alpha  occ. eigenvalues --   -4.84683  -4.84425  -3.31374  -2.08250  -2.07574
 Alpha  occ. eigenvalues --   -2.04856  -0.96651  -0.95795  -0.94377  -0.93935
 Alpha  occ. eigenvalues --   -0.93257  -0.92858  -0.89047  -0.88058  -0.87932
 Alpha  occ. eigenvalues --   -0.87618  -0.84969  -0.84307  -0.84219  -0.84158
 Alpha  occ. eigenvalues --   -0.83857  -0.83713  -0.83640  -0.80246  -0.79977
 Alpha  occ. eigenvalues --   -0.77735  -0.77558  -0.73597  -0.71515  -0.71036
 Alpha  occ. eigenvalues --   -0.70588  -0.70459  -0.70357  -0.70297  -0.70009
 Alpha  occ. eigenvalues --   -0.69458  -0.66838  -0.65970  -0.65798  -0.65037
 Alpha  occ. eigenvalues --   -0.64821  -0.64728  -0.62401  -0.61540  -0.61086
 Alpha  occ. eigenvalues --   -0.60075  -0.58378  -0.57778  -0.57458  -0.57058
 Alpha  occ. eigenvalues --   -0.56697  -0.56218  -0.56148  -0.55235  -0.54961
 Alpha  occ. eigenvalues --   -0.54712  -0.54044  -0.54020  -0.53769  -0.53517
 Alpha  occ. eigenvalues --   -0.53477  -0.53170  -0.52781  -0.52633  -0.52458
 Alpha  occ. eigenvalues --   -0.52209  -0.52046  -0.51607  -0.51070  -0.50398
 Alpha  occ. eigenvalues --   -0.49749  -0.49152  -0.48262  -0.48151  -0.47955
 Alpha  occ. eigenvalues --   -0.47860  -0.47768  -0.47405  -0.47343  -0.47233
 Alpha  occ. eigenvalues --   -0.46572  -0.46257  -0.46077  -0.45799  -0.45505
 Alpha  occ. eigenvalues --   -0.45127  -0.44569  -0.44269  -0.43881  -0.43774
 Alpha  occ. eigenvalues --   -0.43676  -0.43581  -0.43351  -0.43236  -0.43053
 Alpha  occ. eigenvalues --   -0.42841  -0.42626  -0.42124  -0.41617  -0.41478
 Alpha  occ. eigenvalues --   -0.40854  -0.39976  -0.39775  -0.39570  -0.38744
 Alpha  occ. eigenvalues --   -0.36974  -0.36038  -0.35128  -0.35010  -0.34959
 Alpha  occ. eigenvalues --   -0.34484  -0.34203  -0.33764  -0.33101  -0.30633
 Alpha virt. eigenvalues --   -0.16210  -0.13997  -0.11823  -0.11041  -0.10739
 Alpha virt. eigenvalues --   -0.10458  -0.09169  -0.08330  -0.07996  -0.07820
 Alpha virt. eigenvalues --   -0.07532  -0.06695  -0.06319  -0.05853  -0.05626

 Mulliken charges:
               1
     1  Rh  -0.486643
     2  P    0.470687
     3  P    0.429219
     4  C   -0.030232
     5  H    0.162474
     6  C   -0.045977
     7  H    0.168937
     8  C   -0.368168
     9  H    0.171619
    10  H    0.165808
    11  C   -0.218193
    12  H    0.128147
    13  H    0.170249
    14  C   -0.105662
    15  H    0.187318
    16  C   -0.042678
    17  H    0.187561
    18  C   -0.360288
    19  H    0.166031
    20  H    0.167498
    21  C   -0.236083
    22  H    0.137480
    23  H    0.169223
    24  C    0.193373
    25  C   -0.229019
    26  H    0.138358
    27  C   -0.088478
    28  H    0.127116
    29  C   -0.113885
    30  H    0.131699
    31  C   -0.089945
    32  H    0.127107
    33  C   -0.176762
    34  H    0.121409
    35  C   -0.341772
    36  H    0.203827
    37  C   -0.288167
    38  H    0.161445
    39  H    0.163523
    40  C   -0.253767
    41  H    0.163917
    42  H    0.148628
    43  C   -0.348322
    44  H    0.217360
    45  C    0.055905
    46  C   -0.165707
    47  H    0.128576
    48  C   -0.095724
    49  H    0.127608
    50  C   -0.103785
    51  H    0.133226
    52  C   -0.111280
    53  H    0.125210
    54  C   -0.112342
    55  H    0.109367
    56  C   -0.587955
    57  H    0.240288
    58  H    0.194455
    59  C   -0.225111
    60  C   -0.297101
    61  C   -0.237522
    62  H    0.163720
    63  C   -0.249043
    64  H    0.138393
    65  H    0.150752
    66  C   -0.239912
    67  H    0.145076
    68  H    0.131388
    69  C   -0.231444
    70  H    0.147271
    71  H    0.119567
    72  H    0.145608
    73  H    0.122153
    74  H    0.149189
    75  H    0.116426
    76  C   -0.124969
    77  C   -0.241083
    78  C   -0.280707
    79  H    0.105848
    80  C   -0.253956
    81  H    0.122985
    82  H    0.136618
    83  C   -0.251067
    84  H    0.140386
    85  H    0.133210
    86  C   -0.230987
    87  H    0.148714
    88  H    0.117296
    89  H    0.144708
    90  H    0.126752
    91  H    0.146394
    92  H    0.116637
 Sum of Mulliken charges =   1.00000

 Dipole moment (field-independent basis, Debye):
    X=             -0.4248    Y=             -0.0171    Z=              0.0321  Tot=              0.4263
 Quadrupole moment (field-independent basis, Debye-Ang):
   XX=           -227.8714   YY=           -233.5958   ZZ=           -236.2921
   XY=             -0.4607   XZ=              3.1808   YZ=             -4.2109

 Summary of Natural Population Analysis:

                                       Natural Population
                Natural  -----------------------------------------------
    Atom  No    Charge         Core      Valence    Rydberg      Total
 -----------------------------------------------------------------------
     Rh    1   -0.35034     35.98569     9.33616    0.02849    45.35034
      P    2    1.04925      9.99690     3.90827    0.04557    13.95075
      P    3    1.12479      9.99681     3.83108    0.04732    13.87521
      C    4   -0.16618      1.99909     4.14716    0.01993     6.16618
      H    5    0.23028      0.00000     0.76735    0.00236     0.76972
      C    6   -0.17692      1.99908     4.15849    0.01935     6.17692
      H    7    0.21570      0.00000     0.78222    0.00208     0.78430
      C    8   -0.42341      1.99936     4.41213    0.01192     6.42341
      H    9    0.21575      0.00000     0.78231    0.00195     0.78425
      H   10    0.22587      0.00000     0.77264    0.00149     0.77413
      C   11   -0.41790      1.99935     4.40587    0.01269     6.41790
      H   12    0.21661      0.00000     0.78164    0.00175     0.78339
      H   13    0.23220      0.00000     0.76590    0.00190     0.76780
      C   14   -0.15124      1.99909     4.13218    0.01997     6.15124
      H   15    0.22050      0.00000     0.77714    0.00235     0.77950
      C   16   -0.19456      1.99908     4.17605    0.01943     6.19456
      H   17    0.22420      0.00000     0.77361    0.00219     0.77580
      C   18   -0.42183      1.99936     4.41064    0.01183     6.42183
      H   19    0.21419      0.00000     0.78383    0.00197     0.78581
      H   20    0.22780      0.00000     0.77070    0.00150     0.77220
      C   21   -0.41864      1.99935     4.40672    0.01258     6.41864
      H   22    0.21982      0.00000     0.77847    0.00171     0.78018
      H   23    0.23252      0.00000     0.76561    0.00188     0.76748
      C   24   -0.04029      1.99907     4.02113    0.02009     6.04029
      C   25   -0.21253      1.99909     4.19933    0.01411     6.21253
      H   26    0.20335      0.00000     0.79440    0.00225     0.79665
      C   27   -0.19056      1.99921     4.17662    0.01474     6.19056
      H   28    0.21749      0.00000     0.78125    0.00126     0.78251
      C   29   -0.19906      1.99920     4.18508    0.01478     6.19906
      H   30    0.22003      0.00000     0.77877    0.00120     0.77997
      C   31   -0.19137      1.99920     4.17739    0.01478     6.19137
      H   32    0.21756      0.00000     0.78116    0.00127     0.78244
      C   33   -0.20562      1.99911     4.19175    0.01476     6.20562
      H   34    0.20242      0.00000     0.79527    0.00230     0.79758
      C   35   -0.45227      1.99930     4.43470    0.01827     6.45227
      H   36    0.22488      0.00000     0.77177    0.00334     0.77512
      C   37   -0.38718      1.99939     4.37641    0.01138     6.38718
      H   38    0.23235      0.00000     0.76611    0.00154     0.76765
      H   39    0.20273      0.00000     0.79567    0.00160     0.79727
      C   40   -0.39071      1.99938     4.37971    0.01162     6.39071
      H   41    0.23279      0.00000     0.76562    0.00159     0.76721
      H   42    0.19772      0.00000     0.80059    0.00169     0.80228
      C   43   -0.45143      1.99931     4.43466    0.01746     6.45143
      H   44    0.22794      0.00000     0.76949    0.00257     0.77206
      C   45   -0.04519      1.99906     4.02593    0.02021     6.04519
      C   46   -0.21748      1.99909     4.20421    0.01418     6.21748
      H   47    0.20738      0.00000     0.79086    0.00177     0.79262
      C   48   -0.19185      1.99921     4.17775    0.01490     6.19185
      H   49    0.21832      0.00000     0.78044    0.00124     0.78168
      C   50   -0.19862      1.99920     4.18461    0.01481     6.19862
      H   51    0.22002      0.00000     0.77877    0.00120     0.77998
      C   52   -0.19180      1.99920     4.17806    0.01454     6.19180
      H   53    0.21714      0.00000     0.78162    0.00124     0.78286
      C   54   -0.19597      1.99911     4.18232    0.01454     6.19597
      H   55    0.20473      0.00000     0.79338    0.00189     0.79527
      C   56   -1.00666      1.99943     4.98990    0.01734     7.00666
      H   57    0.27102      0.00000     0.72665    0.00233     0.72898
      H   58    0.24655      0.00000     0.75116    0.00229     0.75345
      C   59   -0.47375      1.99935     4.45760    0.01680     6.47375
      C   60   -0.39137      1.99937     4.38197    0.01002     6.39137
      C   61   -0.39177      1.99937     4.38213    0.01026     6.39177
      H   62    0.22306      0.00000     0.77417    0.00277     0.77694
      C   63   -0.38318      1.99942     4.37402    0.00974     6.38318
      H   64    0.19597      0.00000     0.80153    0.00250     0.80403
      H   65    0.20406      0.00000     0.79379    0.00214     0.79594
      C   66   -0.38239      1.99942     4.37331    0.00966     6.38239
      H   67    0.19822      0.00000     0.79945    0.00233     0.80178
      H   68    0.20309      0.00000     0.79504    0.00187     0.79691
      C   69   -0.38963      1.99942     4.38069    0.00952     6.38963
      H   70    0.21534      0.00000     0.78327    0.00140     0.78466
      H   71    0.19235      0.00000     0.80576    0.00189     0.80765
      H   72    0.21518      0.00000     0.78343    0.00140     0.78482
      H   73    0.19336      0.00000     0.80475    0.00189     0.80664
      H   74    0.21600      0.00000     0.78265    0.00135     0.78400
      H   75    0.19333      0.00000     0.80487    0.00180     0.80667
      C   76   -0.47277      1.99935     4.45463    0.01879     6.47277
      C   77   -0.39462      1.99938     4.38385    0.01139     6.39462
      C   78   -0.38885      1.99937     4.37892    0.01056     6.38885
      H   79    0.22457      0.00000     0.77178    0.00365     0.77543
      C   80   -0.38174      1.99942     4.37260    0.00972     6.38174
      H   81    0.19546      0.00000     0.80213    0.00242     0.80454
      H   82    0.20098      0.00000     0.79677    0.00225     0.79902
      C   83   -0.38281      1.99942     4.37339    0.01000     6.38281
      H   84    0.19499      0.00000     0.80279    0.00223     0.80501
      H   85    0.21268      0.00000     0.78550    0.00182     0.78732
      C   86   -0.38955      1.99942     4.38061    0.00952     6.38955
      H   87    0.21543      0.00000     0.78320    0.00137     0.78457
      H   88    0.18978      0.00000     0.80848    0.00175     0.81022
      H   89    0.21402      0.00000     0.78457    0.00141     0.78598
      H   90    0.19170      0.00000     0.80590    0.00239     0.80830
      H   91    0.21495      0.00000     0.78369    0.00136     0.78505
      H   92    0.19359      0.00000     0.80466    0.00176     0.80641
 =======================================================================
   * Total *    1.00000    129.95240   217.30062    0.74699   348.00000

 Normal termination of Gaussian 16 at Tue Jan 21 18:05:35 2025.
