 Gaussian 16, Revision B.01,
 Gaussian 16:  ES64L-G16RevB.01 20-Dec-2017

 ------------------------------------------
 # nmr=giao b3lyp/genecp pop=nbo scfcyc=200
 ------------------------------------------

 ---------
 MB-98_SPE
 ---------
 Symbolic Z-matrix:
 Charge =  1 Multiplicity = 1

                         Standard orientation:
 ---------------------------------------------------------------------
 Center     Atomic      Atomic             Coordinates (Angstroms)
 Number     Number       Type             X           Y           Z
 ---------------------------------------------------------------------
      1         15           0       -2.792470   -1.627849    0.477630
      2         15           0       -0.316971   -0.525109   -0.019530
      3          6           0        4.127610   -1.569078   -0.167550
      4          8           0        0.735209   -0.572999   -1.284740
      5          6           0        2.942199   -0.773259   -0.327770
      6          8           0        0.685719   -0.319649    1.284260
      7          6           0       -0.991630   -2.194689    0.354210
      8          1           0       -0.573720   -2.663189    1.244820
      9          1           0       -0.857460   -2.862049   -0.498340
     10          6           0        4.289760   -2.753558   -0.955070
     11          6           0        1.954720   -1.263559   -1.156390
     12          6           0        6.429060   -3.186358    0.101930
     13          1           0        7.319510   -3.792108    0.211750
     14          6           0        5.587969    2.685842   -0.769220
     15          1           0        6.394629    2.662852   -1.491190
     16          6           0        4.736949    1.614172   -0.667640
     17          1           0        4.878939    0.757162   -1.310140
     18          6           0        2.104940   -2.421219   -1.938980
     19          1           0        1.305710   -2.709909   -2.609000
     20          6           0        1.650609    0.695291    1.205620
     21          6           0        5.463900   -3.533288   -0.806390
     22          1           0        5.578760   -4.419828   -1.418770
     23          6           0        3.665319    1.616831    0.261090
     24          6           0        5.137530   -1.255838    0.777580
     25          1           0        5.020909   -0.388318    1.410790
     26          6           0        2.750079    0.517891    0.391070
     27          6           0        6.253600   -2.043328    0.908740
     28          1           0        7.006650   -1.786808    1.643320
     29          6           0        3.475269    2.785921    1.065360
     30          6           0        4.384719    3.866462    0.947370
     31          1           0        4.237569    4.739372    1.572380
     32          6           0        3.265470   -3.140299   -1.852520
     33          1           0        3.404330   -4.026409   -2.459910
     34          6           0        1.457839    1.835031    2.005560
     35          1           0        0.597549    1.875841    2.660550
     36          6           0        5.421879    3.819182    0.053220
     37          1           0        6.107819    4.652292   -0.032610
     38          6           0        2.371059    2.852581    1.949710
     39          1           0        2.248429    3.730531    2.572470
     40         45           0       -2.261671    0.603591   -0.297960
     41          6           0       -4.292461    1.453720   -1.125480
     42          6           0       -4.179891    1.795740    0.195550
     43          6           0       -1.484561    2.722541   -0.531570
     44          6           0       -1.501721    2.109801   -1.771120
     45          6           0       -4.006141    2.355870   -2.307800
     46          1           0       -4.838251    0.545560   -1.350530
     47          1           0       -4.672551    1.151580    0.916460
     48          6           0       -3.675231    3.100910    0.756100
     49          6           0       -2.499191    3.730661   -0.022510
     50          1           0       -0.541001    2.710101    0.002730
     51          6           0       -2.559911    2.245451   -2.836400
     52          1           0       -0.567391    1.686321   -2.125430
     53          1           0       -4.688931    2.088860   -3.116130
     54          1           0       -4.239161    3.387260   -2.046370
     55          1           0       -4.504571    3.816660    0.815720
     56          1           0       -3.365311    2.921631    1.787770
     57          1           0       -2.870911    4.330181   -0.853050
     58          1           0       -1.986481    4.427521    0.642250
     59          1           0       -2.482971    1.375171   -3.491730
     60          1           0       -2.331751    3.113491   -3.467600
     61          6           0       -3.689640   -2.895330   -0.597400
     62          1           0       -3.076300   -2.878909   -1.504330
     63          6           0       -5.109710   -2.484180   -0.998590
     64          1           0       -5.125300   -1.520480   -1.506300
     65          1           0       -5.516030   -3.223880   -1.691770
     66          1           0       -5.787070   -2.433270   -0.146130
     67          6           0       -3.644050   -4.309199   -0.006520
     68          1           0       -4.012740   -5.023580   -0.745990
     69          1           0       -2.633700   -4.617949    0.267870
     70          1           0       -4.278640   -4.399900    0.876350
     71          6           0       -3.245950   -1.934659    2.279100
     72          1           0       -3.002980   -2.986109    2.458320
     73          6           0       -4.738580   -1.719800    2.552410
     74          1           0       -5.373310   -2.407190    1.994970
     75          1           0       -4.937450   -1.882280    3.613830
     76          1           0       -5.050691   -0.699880    2.317620
     77          6           0       -2.386330   -1.066419    3.205760
     78          1           0       -1.316710   -1.231239    3.074950
     79          1           0       -2.584411   -0.004219    3.047230
     80          1           0       -2.628510   -1.299939    4.244830
 ---------------------------------------------------------------------

 SCF Done:  E(RB3LYP) =  -2302.01682483     A.U. after   19 cycles

      1  P    Isotropic =   306.8647   Anisotropy =    96.0992

      2  P    Isotropic =   132.4208   Anisotropy =   224.1819

      3  C    Isotropic =    44.7213   Anisotropy =   203.1206

      4  O    Isotropic =   151.5640   Anisotropy =    41.7964

      5  C    Isotropic =    53.6431   Anisotropy =   138.4709

      6  O    Isotropic =   144.7552   Anisotropy =    86.7792

      7  C    Isotropic =   123.4818   Anisotropy =    56.8959

      8  H    Isotropic =    28.5950   Anisotropy =     5.5153

      9  H    Isotropic =    28.4144   Anisotropy =     8.0376

     10  C    Isotropic =    45.5621   Anisotropy =   213.2388

     11  C    Isotropic =    28.8673   Anisotropy =   106.8784

     12  C    Isotropic =    51.4378   Anisotropy =   186.0929

     13  H    Isotropic =    24.0463   Anisotropy =     4.3214

     14  C    Isotropic =    50.2489   Anisotropy =   187.4715

     15  H    Isotropic =    24.2792   Anisotropy =     7.6307

     16  C    Isotropic =    51.0100   Anisotropy =   177.9480

     17  H    Isotropic =    24.5424   Anisotropy =    14.3234

     18  C    Isotropic =    61.9899   Anisotropy =   143.6602

     19  H    Isotropic =    24.4393   Anisotropy =     8.4761

     20  C    Isotropic =    29.5884   Anisotropy =   110.4545

     21  C    Isotropic =    50.2427   Anisotropy =   164.1594

     22  H    Isotropic =    23.6847   Anisotropy =     7.4258

     23  C    Isotropic =    44.9694   Anisotropy =   204.7699

     24  C    Isotropic =    51.7222   Anisotropy =   178.4679

     25  H    Isotropic =    24.5985   Anisotropy =    15.0812

     26  C    Isotropic =    52.8924   Anisotropy =   139.0033

     27  C    Isotropic =    50.3924   Anisotropy =   187.1885

     28  H    Isotropic =    24.2786   Anisotropy =     8.0042

     29  C    Isotropic =    45.7758   Anisotropy =   213.8185

     30  C    Isotropic =    50.0373   Anisotropy =   163.1969

     31  H    Isotropic =    23.7284   Anisotropy =     7.6158

     32  C    Isotropic =    47.0003   Anisotropy =   164.0600

     33  H    Isotropic =    23.6452   Anisotropy =     7.3530

     34  C    Isotropic =    61.7125   Anisotropy =   147.6061

     35  H    Isotropic =    24.2374   Anisotropy =     7.3433

     36  C    Isotropic =    51.0068   Anisotropy =   185.5265

     37  H    Isotropic =    24.0670   Anisotropy =     4.3918

     38  C    Isotropic =    47.4453   Anisotropy =   164.4948

     39  H    Isotropic =    23.6636   Anisotropy =     7.5779

     40  Rh   Isotropic =  -317.6870   Anisotropy =   386.0433

     41  C    Isotropic =    66.5318   Anisotropy =   140.0086

     42  C    Isotropic =    68.2684   Anisotropy =   130.0436

     43  C    Isotropic =    83.1809   Anisotropy =   116.4350

     44  C    Isotropic =    76.4573   Anisotropy =   118.9873

     45  C    Isotropic =   154.2026   Anisotropy =    24.9992

     46  H    Isotropic =    26.2712   Anisotropy =     6.4848

     47  H    Isotropic =    25.6387   Anisotropy =     4.0512

     48  C    Isotropic =   148.4799   Anisotropy =    28.2718

     49  C    Isotropic =   154.3293   Anisotropy =    23.3376

     50  H    Isotropic =    27.4669   Anisotropy =    10.6578

     51  C    Isotropic =   147.5751   Anisotropy =    31.5424

     52  H    Isotropic =    26.3936   Anisotropy =     3.5388

     53  H    Isotropic =    29.8943   Anisotropy =    11.8940

     54  H    Isotropic =    29.7931   Anisotropy =     8.9672

     55  H    Isotropic =    29.1177   Anisotropy =    12.4253

     56  H    Isotropic =    29.1198   Anisotropy =     6.7960

     57  H    Isotropic =    29.8747   Anisotropy =     9.1892

     58  H    Isotropic =    29.9663   Anisotropy =    10.7131

     59  H    Isotropic =    29.1505   Anisotropy =     7.8142

     60  H    Isotropic =    29.2468   Anisotropy =    11.8403

     61  C    Isotropic =   138.5982   Anisotropy =    33.1652

     62  H    Isotropic =    29.7763   Anisotropy =     4.9749

     63  C    Isotropic =   163.5793   Anisotropy =    30.3821

     64  H    Isotropic =    30.4751   Anisotropy =     6.9845

     65  H    Isotropic =    30.4070   Anisotropy =    11.5273

     66  H    Isotropic =    30.6880   Anisotropy =     6.5089

     67  C    Isotropic =   167.9158   Anisotropy =    27.1014

     68  H    Isotropic =    30.4783   Anisotropy =    12.1028

     69  H    Isotropic =    30.7831   Anisotropy =     7.1759

     70  H    Isotropic =    30.8085   Anisotropy =     7.6017

     71  C    Isotropic =   146.6800   Anisotropy =    24.0280

     72  H    Isotropic =    29.5860   Anisotropy =     5.7820

     73  C    Isotropic =   164.3998   Anisotropy =    30.5612

     74  H    Isotropic =    30.5240   Anisotropy =     8.5277

     75  H    Isotropic =    30.4605   Anisotropy =    11.8918

     76  H    Isotropic =    30.9925   Anisotropy =     5.5340

     77  C    Isotropic =   162.7488   Anisotropy =    29.2292

     78  H    Isotropic =    30.1423   Anisotropy =     8.0481

     79  H    Isotropic =    30.3387   Anisotropy =     5.7505

     80  H    Isotropic =    30.3996   Anisotropy =    11.3464

 The electronic state is 1-A.
 Alpha  occ. eigenvalues --  -77.30765 -77.23540 -19.27426 -19.27148 -10.33585
 Alpha  occ. eigenvalues --  -10.33561 -10.30774 -10.30511 -10.30460 -10.30130
 Alpha  occ. eigenvalues --  -10.29970 -10.29533 -10.29268 -10.28740 -10.28676
 Alpha  occ. eigenvalues --  -10.28305 -10.28002 -10.27978 -10.27905 -10.27844
 Alpha  occ. eigenvalues --  -10.27796 -10.27350 -10.27321 -10.27310 -10.27246
 Alpha  occ. eigenvalues --  -10.27196 -10.27180 -10.27128 -10.27061 -10.26968
 Alpha  occ. eigenvalues --  -10.26924 -10.25795 -10.25636 -10.25627 -10.25571
 Alpha  occ. eigenvalues --  -10.25500 -10.25486 -10.25435 -10.25323  -6.75857
 Alpha  occ. eigenvalues --   -6.69566  -4.92329  -4.92132  -4.91649  -4.85877
 Alpha  occ. eigenvalues --   -4.85731  -4.85472  -3.32596  -2.09635  -2.08776
 Alpha  occ. eigenvalues --   -2.05956  -1.18952  -1.15018  -0.97860  -0.96236
 Alpha  occ. eigenvalues --   -0.95177  -0.92931  -0.92030  -0.91059  -0.89932
 Alpha  occ. eigenvalues --   -0.89925  -0.89037  -0.88677  -0.87293  -0.85052
 Alpha  occ. eigenvalues --   -0.83404  -0.83022  -0.82235  -0.81041  -0.80139
 Alpha  occ. eigenvalues --   -0.79955  -0.79668  -0.78530  -0.76822  -0.74157
 Alpha  occ. eigenvalues --   -0.72337  -0.71823  -0.71229  -0.70754  -0.70246
 Alpha  occ. eigenvalues --   -0.69923  -0.68199  -0.66641  -0.66486  -0.65168
 Alpha  occ. eigenvalues --   -0.64379  -0.63166  -0.61934  -0.61303  -0.60818
 Alpha  occ. eigenvalues --   -0.60026  -0.59728  -0.58471  -0.58066  -0.57662
 Alpha  occ. eigenvalues --   -0.57336  -0.57120  -0.56800  -0.56701  -0.55515
 Alpha  occ. eigenvalues --   -0.55054  -0.54498  -0.54298  -0.54006  -0.53717
 Alpha  occ. eigenvalues --   -0.53280  -0.53156  -0.52843  -0.52771  -0.52343
 Alpha  occ. eigenvalues --   -0.51962  -0.51441  -0.51157  -0.51022  -0.50765
 Alpha  occ. eigenvalues --   -0.50471  -0.49976  -0.49428  -0.48978  -0.48495
 Alpha  occ. eigenvalues --   -0.48411  -0.48154  -0.47880  -0.47501  -0.46947
 Alpha  occ. eigenvalues --   -0.46744  -0.46662  -0.46429  -0.46029  -0.45794
 Alpha  occ. eigenvalues --   -0.45335  -0.45100  -0.44294  -0.43886  -0.43708
 Alpha  occ. eigenvalues --   -0.43569  -0.43483  -0.42984  -0.42037  -0.41782
 Alpha  occ. eigenvalues --   -0.41669  -0.41483  -0.41039  -0.40853  -0.38508
 Alpha  occ. eigenvalues --   -0.37915  -0.37287  -0.36904  -0.36066  -0.35784
 Alpha  occ. eigenvalues --   -0.34706  -0.33547  -0.33247  -0.31688  -0.31039
 Alpha  occ. eigenvalues --   -0.30218
 Alpha virt. eigenvalues --   -0.17604  -0.15183  -0.14448  -0.12919  -0.10819
 Alpha virt. eigenvalues --   -0.10369  -0.10128  -0.09111  -0.08428  -0.07893
 Alpha virt. eigenvalues --   -0.07597  -0.07124  -0.06757  -0.06298  -0.06066

 Mulliken charges:
               1
     1  P    0.395225
     2  P    0.819997
     3  C   -0.001632
     4  O   -0.328579
     5  C    0.005479
     6  O   -0.327912
     7  C   -0.627883
     8  H    0.224821
     9  H    0.215126
    10  C    0.028755
    11  C    0.129143
    12  C   -0.085173
    13  H    0.124920
    14  C   -0.071763
    15  H    0.124085
    16  C   -0.112077
    17  H    0.154442
    18  C   -0.166198
    19  H    0.127381
    20  C    0.073599
    21  C   -0.133324
    22  H    0.118047
    23  C    0.039171
    24  C   -0.118352
    25  H    0.154606
    26  C    0.014091
    27  C   -0.070764
    28  H    0.123244
    29  C    0.015748
    30  C   -0.144851
    31  H    0.116257
    32  C   -0.159999
    33  H    0.120009
    34  C   -0.218102
    35  H    0.128539
    36  C   -0.082123
    37  H    0.125100
    38  C   -0.123631
    39  H    0.118917
    40  Rh  -0.569120
    41  C   -0.033047
    42  C   -0.105628
    43  C   -0.057824
    44  C   -0.086161
    45  C   -0.338111
    46  H    0.184868
    47  H    0.177650
    48  C   -0.204401
    49  C   -0.370326
    50  H    0.247912
    51  C   -0.226467
    52  H    0.210622
    53  H    0.171750
    54  H    0.167726
    55  H    0.177441
    56  H    0.131929
    57  H    0.171063
    58  H    0.170371
    59  H    0.139206
    60  H    0.176089
    61  C   -0.209787
    62  H    0.158891
    63  C   -0.379772
    64  H    0.123230
    65  H    0.158794
    66  H    0.141262
    67  C   -0.369542
    68  H    0.156854
    69  H    0.143402
    70  H    0.141872
    71  C   -0.191968
    72  H    0.179834
    73  C   -0.390791
    74  H    0.139802
    75  H    0.158170
    76  H    0.124677
    77  C   -0.385556
    78  H    0.154245
    79  H    0.128623
    80  H    0.157878
 Sum of Mulliken charges =   1.00000

 Dipole moment (field-independent basis, Debye):
    X=             -6.1736    Y=             -1.0894    Z=              0.0337  Tot=              6.2691
 Quadrupole moment (field-independent basis, Debye-Ang):
   XX=           -178.8367   YY=           -210.3971   ZZ=           -245.6034
   XY=              3.8313   XZ=             -1.2190   YZ=              4.5780

 Summary of Natural Population Analysis:

                                       Natural Population
                Natural  -----------------------------------------------
    Atom  No    Charge         Core      Valence    Rydberg      Total
 -----------------------------------------------------------------------
      P    1    1.06513      9.99699     3.89243    0.04545    13.93487
      P    2    1.74003      9.99558     3.17448    0.08992    13.25997
      C    3   -0.03110      1.99904     4.01525    0.01681     6.03110
      O    4   -0.74153      1.99980     6.72884    0.01290     8.74153
      C    5   -0.06364      1.99887     4.04472    0.02004     6.06364
      O    6   -0.74092      1.99980     6.72645    0.01467     8.74092
      C    7   -1.05566      1.99943     5.03863    0.01760     7.05566
      H    8    0.27303      0.00000     0.72494    0.00203     0.72697
      H    9    0.26953      0.00000     0.72870    0.00177     0.73047
      C   10   -0.06362      1.99910     4.04857    0.01595     6.06362
      C   11    0.25673      1.99861     3.72142    0.02323     5.74327
      C   12   -0.19449      1.99920     4.18047    0.01483     6.19449
      H   13    0.22005      0.00000     0.77880    0.00115     0.77995
      C   14   -0.18401      1.99920     4.17003    0.01478     6.18401
      H   15    0.21912      0.00000     0.77969    0.00119     0.78088
      C   16   -0.18775      1.99913     4.17453    0.01409     6.18775
      H   17    0.22191      0.00000     0.77638    0.00171     0.77809
      C   18   -0.24705      1.99906     4.23245    0.01554     6.24705
      H   19    0.22255      0.00000     0.77584    0.00161     0.77745
      C   20    0.25420      1.99862     3.72422    0.02297     5.74580
      C   21   -0.17010      1.99915     4.15673    0.01423     6.17010
      H   22    0.21404      0.00000     0.78433    0.00162     0.78596
      C   23   -0.03261      1.99904     4.01708    0.01650     6.03261
      C   24   -0.18869      1.99913     4.17564    0.01391     6.18869
      H   25    0.22100      0.00000     0.77724    0.00176     0.77900
      C   26   -0.05894      1.99888     4.04059    0.01947     6.05894
      C   27   -0.18363      1.99920     4.16963    0.01480     6.18363
      H   28    0.21877      0.00000     0.78005    0.00118     0.78123
      C   29   -0.06449      1.99910     4.04942    0.01597     6.06449
      C   30   -0.17089      1.99914     4.15779    0.01396     6.17089
      H   31    0.21362      0.00000     0.78492    0.00146     0.78638
      C   32   -0.14606      1.99915     4.13267    0.01424     6.14606
      H   33    0.21844      0.00000     0.78001    0.00155     0.78156
      C   34   -0.24868      1.99906     4.23430    0.01533     6.24868
      H   35    0.22550      0.00000     0.77276    0.00174     0.77450
      C   36   -0.19427      1.99920     4.18028    0.01480     6.19427
      H   37    0.22004      0.00000     0.77878    0.00118     0.77996
      C   38   -0.14936      1.99914     4.13644    0.01378     6.14936
      H   39    0.21764      0.00000     0.78096    0.00140     0.78236
     Rh   40   -0.46645     35.98478     9.45675    0.02492    45.46645
      C   41   -0.16130      1.99908     4.14240    0.01982     6.16130
      C   42   -0.15940      1.99908     4.13919    0.02113     6.15940
      C   43   -0.17761      1.99906     4.15860    0.01996     6.17761
      C   44   -0.14964      1.99906     4.13070    0.01987     6.14964
      C   45   -0.42826      1.99936     4.41692    0.01197     6.42826
      H   46    0.22556      0.00000     0.77252    0.00192     0.77444
      H   47    0.22550      0.00000     0.77234    0.00216     0.77450
      C   48   -0.42490      1.99935     4.41295    0.01259     6.42490
      C   49   -0.42334      1.99936     4.41220    0.01178     6.42334
      H   50    0.23433      0.00000     0.76319    0.00248     0.76567
      C   51   -0.42003      1.99935     4.40800    0.01267     6.42003
      H   52    0.23955      0.00000     0.75862    0.00183     0.76045
      H   53    0.23109      0.00000     0.76753    0.00139     0.76891
      H   54    0.21627      0.00000     0.78181    0.00192     0.78373
      H   55    0.23773      0.00000     0.76048    0.00179     0.76227
      H   56    0.22016      0.00000     0.77831    0.00153     0.77984
      H   57    0.21522      0.00000     0.78285    0.00193     0.78478
      H   58    0.22981      0.00000     0.76879    0.00141     0.77019
      H   59    0.21977      0.00000     0.77868    0.00155     0.78023
      H   60    0.23694      0.00000     0.76128    0.00178     0.76306
      C   61   -0.45219      1.99941     4.43809    0.01469     6.45219
      H   62    0.22107      0.00000     0.77713    0.00179     0.77893
      C   63   -0.59359      1.99940     4.58686    0.00733     6.59359
      H   64    0.20623      0.00000     0.79229    0.00148     0.79377
      H   65    0.22460      0.00000     0.77392    0.00148     0.77540
      H   66    0.20632      0.00000     0.79202    0.00166     0.79368
      C   67   -0.60438      1.99941     4.59680    0.00816     6.60438
      H   68    0.22735      0.00000     0.77121    0.00145     0.77265
      H   69    0.20923      0.00000     0.78923    0.00153     0.79077
      H   70    0.20813      0.00000     0.79031    0.00156     0.79187
      C   71   -0.46372      1.99941     4.44928    0.01503     6.46372
      H   72    0.22294      0.00000     0.77465    0.00242     0.77706
      C   73   -0.59753      1.99941     4.59061    0.00751     6.59753
      H   74    0.20878      0.00000     0.78950    0.00172     0.79122
      H   75    0.22660      0.00000     0.77189    0.00151     0.77340
      H   76    0.20256      0.00000     0.79593    0.00151     0.79744
      C   77   -0.59898      1.99941     4.59218    0.00739     6.59898
      H   78    0.21667      0.00000     0.78191    0.00141     0.78333
      H   79    0.21043      0.00000     0.78809    0.00148     0.78957
      H   80    0.22464      0.00000     0.77387    0.00149     0.77536
 =======================================================================
   * Total *    1.00000    129.94756   209.26633    0.78611   340.00000

 Normal termination of Gaussian 16 at Tue Jan 21 17:59:05 2025.
