 Gaussian 16, Revision B.01,
 Gaussian 16:  ES64L-G16RevB.01 20-Dec-2017

 ------------------------------------------
 # nmr=giao b3lyp/genecp pop=nbo scfcyc=200
 ------------------------------------------

 -------------
 Ligand 9b SPE
 -------------
 Symbolic Z-matrix:
 Charge =  1 Multiplicity = 1

                         Standard orientation:
 ---------------------------------------------------------------------
 Center     Atomic      Atomic             Coordinates (Angstroms)
 Number     Number       Type             X           Y           Z
 ---------------------------------------------------------------------
      1         45           0        0.004451    0.903711   -0.233670
      2         15           0       -1.126919   -0.885099    0.865010
      3         15           0        1.210291   -1.071570   -0.659720
      4          6           0       -1.650539    2.406141   -0.430680
      5          1           0       -2.542189    1.799211   -0.321530
      6          6           0       -1.483369    3.052141   -1.784030
      7          1           0       -2.097219    3.960071   -1.839800
      8          1           0       -1.895629    2.368011   -2.528850
      9          6           0       -0.023619    3.386251   -2.160930
     10          1           0        0.043391    3.464291   -3.247290
     11          1           0        0.254931    4.366241   -1.773520
     12          6           0        0.976051    2.347420   -1.688260
     13          1           0        1.379961    1.705290   -2.463720
     14          6           0        1.658001    2.377350   -0.486500
     15          1           0        2.561371    1.780410   -0.415000
     16          6           0        1.498391    3.395720    0.616300
     17          1           0        2.123941    4.271860    0.403470
     18          1           0        1.902441    2.955270    1.530330
     19          6           0        0.042951    3.843371    0.874350
     20          1           0       -0.021319    4.240631    1.888840
     21          1           0       -0.223259    4.668051    0.213390
     22          6           0       -0.969949    2.723231    0.726560
     23          1           0       -1.370509    2.327731    1.653740
     24          6           0        0.291811   -2.083639    0.613680
     25          1           0        0.877901   -2.085010    1.531480
     26          1           0        0.063771   -3.113419    0.342810
     27          6           0        3.016571   -1.332250   -0.451740
     28          6           0        3.635171   -1.008270    0.773090
     29          6           0        5.013061   -1.152210    0.922120
     30          1           0        5.493791   -0.914510    1.859810
     31          6           0        5.782301   -1.609900   -0.143170
     32          6           0        5.190521   -1.926950   -1.357480
     33          1           0        5.789151   -2.282900   -2.185270
     34          6           0        3.815121   -1.786550   -1.503750
     35          6           0        0.792311   -1.870120   -2.270450
     36          1           0        1.227991   -1.307590   -3.095200
     37          1           0        1.138061   -2.903870   -2.308910
     38          1           0       -0.290719   -1.846289   -2.385840
     39          6           0       -2.641069   -1.670469    0.164670
     40          6           0       -2.618169   -2.885949   -0.519050
     41          6           0       -3.874729   -1.002839    0.303360
     42          6           0       -3.778079   -3.440269   -1.050820
     43          6           0       -5.039239   -1.558409   -0.221130
     44          6           0       -4.984459   -2.773029   -0.897870
     45          1           0       -3.735159   -4.386809   -1.572990
     46          1           0       -5.988329   -1.054639   -0.110050
     47          6           0       -1.399219   -0.866039    2.694320
     48          1           0       -2.222169   -0.194849    2.928260
     49          1           0       -1.635249   -1.868779    3.051820
     50          1           0       -0.491339   -0.506059    3.177340
     51          1           0        6.851851   -1.717210   -0.014310
     52          1           0        3.366921   -2.038040   -2.454990
     53          1           0       -5.895749   -3.194369   -1.302790
     54          1           0       -1.688929   -3.424599   -0.640080
     55          6           0       -5.061659    0.887111    1.214390
     56          1           0       -4.787079    1.777381    1.774080
     57          1           0       -5.540439    1.181031    0.277530
     58          1           0       -5.749649    0.281161    1.807870
     59          8           0       -3.837619    0.186621    0.972670
     60          8           0        2.808331   -0.567350    1.764870
     61          6           0        3.376071   -0.178130    3.017570
     62          1           0        3.865561   -1.022020    3.509070
     63          1           0        4.089061    0.639700    2.890810
     64          1           0        2.542871    0.161240    3.627550
 ---------------------------------------------------------------------

 SCF Done:  E(RB3LYP) =  -1917.16164378     A.U. after   15 cycles

      1  Rh   Isotropic =  -326.3995   Anisotropy =   356.4275

      2  P    Isotropic =   338.6321   Anisotropy =    60.8921

      3  P    Isotropic =   339.9468   Anisotropy =    85.9231

      4  C    Isotropic =    76.3864   Anisotropy =   120.4279

      5  H    Isotropic =    25.9631   Anisotropy =     7.8019

      6  C    Isotropic =   147.6148   Anisotropy =    30.0842

      7  H    Isotropic =    29.2480   Anisotropy =    12.2751

      8  H    Isotropic =    29.3420   Anisotropy =     7.2621

      9  C    Isotropic =   154.0002   Anisotropy =    24.8037

     10  H    Isotropic =    30.0261   Anisotropy =    11.6863

     11  H    Isotropic =    29.9228   Anisotropy =     9.2900

     12  C    Isotropic =    82.9915   Anisotropy =   114.7906

     13  H    Isotropic =    27.5694   Anisotropy =     7.2309

     14  C    Isotropic =    76.3895   Anisotropy =   115.9941

     15  H    Isotropic =    27.1636   Anisotropy =     4.1067

     16  C    Isotropic =   147.5258   Anisotropy =    29.5510

     17  H    Isotropic =    29.2128   Anisotropy =    12.0808

     18  H    Isotropic =    29.1110   Anisotropy =     7.6576

     19  C    Isotropic =   153.6786   Anisotropy =    24.6511

     20  H    Isotropic =    29.7789   Anisotropy =    11.0840

     21  H    Isotropic =    29.7681   Anisotropy =     9.2122

     22  C    Isotropic =    79.7896   Anisotropy =   120.1998

     23  H    Isotropic =    26.7836   Anisotropy =     5.8950

     24  C    Isotropic =   139.6122   Anisotropy =    49.4865

     25  H    Isotropic =    27.6583   Anisotropy =     4.4271

     26  H    Isotropic =    28.5702   Anisotropy =     9.0186

     27  C    Isotropic =    60.6519   Anisotropy =   135.4862

     28  C    Isotropic =    16.2937   Anisotropy =   135.2897

     29  C    Isotropic =    69.7187   Anisotropy =   159.8196

     30  H    Isotropic =    24.8447   Anisotropy =     8.7349

     31  C    Isotropic =    43.6533   Anisotropy =   195.4919

     32  C    Isotropic =    56.7168   Anisotropy =   178.8540

     33  H    Isotropic =    24.5491   Anisotropy =     5.2524

     34  C    Isotropic =    48.1770   Anisotropy =   182.8530

     35  C    Isotropic =   170.6447   Anisotropy =    21.6976

     36  H    Isotropic =    30.2448   Anisotropy =     9.4810

     37  H    Isotropic =    30.1286   Anisotropy =    11.3896

     38  H    Isotropic =    30.1512   Anisotropy =     7.1338

     39  C    Isotropic =    59.1800   Anisotropy =   141.3776

     40  C    Isotropic =    50.1967   Anisotropy =   180.9093

     41  C    Isotropic =    15.2647   Anisotropy =   136.4363

     42  C    Isotropic =    57.0550   Anisotropy =   177.9274

     43  C    Isotropic =    69.1193   Anisotropy =   161.0486

     44  C    Isotropic =    44.4449   Anisotropy =   194.3288

     45  H    Isotropic =    24.4802   Anisotropy =     5.8493

     46  H    Isotropic =    24.8678   Anisotropy =     8.2702

     47  C    Isotropic =   165.5935   Anisotropy =    33.1162

     48  H    Isotropic =    29.5389   Anisotropy =     8.1000

     49  H    Isotropic =    30.3897   Anisotropy =    10.0337

     50  H    Isotropic =    30.3943   Anisotropy =     8.8073

     51  H    Isotropic =    24.0460   Anisotropy =     4.7330

     52  H    Isotropic =    24.6139   Anisotropy =    11.9590

     53  H    Isotropic =    24.0353   Anisotropy =     4.3740

     54  H    Isotropic =    24.4962   Anisotropy =    11.2209

     55  C    Isotropic =   128.2118   Anisotropy =    77.8842

     56  H    Isotropic =    27.8854   Anisotropy =     8.3722

     57  H    Isotropic =    28.1185   Anisotropy =     9.1567

     58  H    Isotropic =    28.1753   Anisotropy =    10.3854

     59  O    Isotropic =   213.8381   Anisotropy =    90.9851

     60  O    Isotropic =   212.1171   Anisotropy =    97.7437

     61  C    Isotropic =   127.9061   Anisotropy =    76.7278

     62  H    Isotropic =    27.8935   Anisotropy =     9.9622

     63  H    Isotropic =    27.9717   Anisotropy =     8.7588

     64  H    Isotropic =    27.4728   Anisotropy =     7.3497

 The electronic state is 1-A.
 Alpha  occ. eigenvalues --  -77.23721 -77.23714 -19.26982 -19.26897 -10.34836
 Alpha  occ. eigenvalues --  -10.34734 -10.32795 -10.32563 -10.29920 -10.29616
 Alpha  occ. eigenvalues --  -10.29579 -10.28853 -10.28782 -10.28708 -10.28662
 Alpha  occ. eigenvalues --  -10.28555 -10.28534 -10.28461 -10.28320 -10.27937
 Alpha  occ. eigenvalues --  -10.27886 -10.27754 -10.27719 -10.27337 -10.27158
 Alpha  occ. eigenvalues --  -10.27101 -10.27068 -10.27000 -10.26974  -6.69696
 Alpha  occ. eigenvalues --   -6.69661  -4.85979  -4.85975  -4.85936  -4.85876
 Alpha  occ. eigenvalues --   -4.85577  -4.85542  -3.31210  -2.08120  -2.07465
 Alpha  occ. eigenvalues --   -2.04633  -1.17921  -1.17805  -0.96556  -0.96471
 Alpha  occ. eigenvalues --   -0.94128  -0.90155  -0.88797  -0.87814  -0.87730
 Alpha  occ. eigenvalues --   -0.86360  -0.86068  -0.85133  -0.83799  -0.81104
 Alpha  occ. eigenvalues --   -0.80317  -0.80245  -0.80022  -0.77490  -0.73636
 Alpha  occ. eigenvalues --   -0.72853  -0.70293  -0.70284  -0.70055  -0.67554
 Alpha  occ. eigenvalues --   -0.66958  -0.65539  -0.63978  -0.63584  -0.62174
 Alpha  occ. eigenvalues --   -0.59976  -0.59690  -0.59341  -0.58573  -0.58259
 Alpha  occ. eigenvalues --   -0.57897  -0.57699  -0.56542  -0.56069  -0.55981
 Alpha  occ. eigenvalues --   -0.55373  -0.55310  -0.54685  -0.53918  -0.53349
 Alpha  occ. eigenvalues --   -0.53082  -0.52670  -0.52569  -0.52350  -0.52218
 Alpha  occ. eigenvalues --   -0.52075  -0.50970  -0.50195  -0.49509  -0.49159
 Alpha  occ. eigenvalues --   -0.48821  -0.47897  -0.47553  -0.47310  -0.46739
 Alpha  occ. eigenvalues --   -0.46614  -0.46489  -0.46102  -0.45695  -0.44415
 Alpha  occ. eigenvalues --   -0.43760  -0.43484  -0.43424  -0.43168  -0.42968
 Alpha  occ. eigenvalues --   -0.42640  -0.42160  -0.41173  -0.37783  -0.37330
 Alpha  occ. eigenvalues --   -0.35864  -0.35699  -0.34694  -0.34297  -0.33663
 Alpha  occ. eigenvalues --   -0.33286  -0.33051  -0.30280
 Alpha virt. eigenvalues --   -0.15801  -0.14603  -0.12845  -0.11477  -0.10709
 Alpha virt. eigenvalues --   -0.10425  -0.08970  -0.08069  -0.07513  -0.07091
 Alpha virt. eigenvalues --   -0.06566  -0.05752  -0.05591  -0.05072  -0.04568

 Mulliken charges:
               1
     1  Rh  -0.487964
     2  P    0.331679
     3  P    0.405051
     4  C   -0.050299
     5  H    0.206426
     6  C   -0.222896
     7  H    0.165509
     8  H    0.133154
     9  C   -0.339745
    10  H    0.166893
    11  H    0.164046
    12  C   -0.014360
    13  H    0.168727
    14  C   -0.088108
    15  H    0.192125
    16  C   -0.221365
    17  H    0.167901
    18  H    0.125060
    19  C   -0.356608
    20  H    0.165355
    21  H    0.166506
    22  C   -0.048977
    23  H    0.169901
    24  C   -0.568912
    25  H    0.230190
    26  H    0.204060
    27  C   -0.229806
    28  C    0.164673
    29  C   -0.093622
    30  H    0.152510
    31  C   -0.123763
    32  C   -0.078657
    33  H    0.133026
    34  C   -0.105551
    35  C   -0.475466
    36  H    0.167618
    37  H    0.171430
    38  H    0.182958
    39  C   -0.123398
    40  C   -0.095357
    41  C    0.110642
    42  C   -0.078367
    43  C   -0.091951
    44  C   -0.132878
    45  H    0.131597
    46  H    0.155253
    47  C   -0.445812
    48  H    0.178317
    49  H    0.164712
    50  H    0.145067
    51  H    0.136872
    52  H    0.144771
    53  H    0.135759
    54  H    0.119496
    55  C   -0.239694
    56  H    0.155519
    57  H    0.149537
    58  H    0.153457
    59  O   -0.265733
    60  O   -0.249012
    61  C   -0.230767
    62  H    0.151314
    63  H    0.145533
    64  H    0.146427
 Sum of Mulliken charges =   1.00000

 Dipole moment (field-independent basis, Debye):
    X=             -0.4072    Y=             -0.4926    Z=              1.3514  Tot=              1.4949
 Quadrupole moment (field-independent basis, Debye-Ang):
   XX=           -135.4902   YY=           -176.9462   ZZ=           -181.0495
   XY=             -3.8630   XZ=              2.7978   YZ=              5.6681

 Summary of Natural Population Analysis:

                                       Natural Population
                Natural  -----------------------------------------------
    Atom  No    Charge         Core      Valence    Rydberg      Total
 -----------------------------------------------------------------------
     Rh    1   -0.39330     35.98507     9.38243    0.02580    45.39330
      P    2    1.11374      9.99676     3.84021    0.04929    13.88626
      P    3    1.13457      9.99660     3.81768    0.05115    13.86543
      C    4   -0.16403      1.99907     4.14421    0.02074     6.16403
      H    5    0.23781      0.00000     0.75974    0.00245     0.76219
      C    6   -0.42136      1.99936     4.40909    0.01291     6.42136
      H    7    0.23082      0.00000     0.76743    0.00176     0.76918
      H    8    0.21867      0.00000     0.77984    0.00149     0.78133
      C    9   -0.42297      1.99937     4.41182    0.01178     6.42297
      H   10    0.22755      0.00000     0.77106    0.00139     0.77245
      H   11    0.21274      0.00000     0.78531    0.00195     0.78726
      C   12   -0.17641      1.99905     4.15769    0.01967     6.17641
      H   13    0.22546      0.00000     0.77299    0.00156     0.77454
      C   14   -0.15219      1.99905     4.13290    0.02025     6.15219
      H   15    0.22853      0.00000     0.76964    0.00183     0.77147
      C   16   -0.41738      1.99936     4.40538    0.01265     6.41738
      H   17    0.23141      0.00000     0.76671    0.00188     0.76859
      H   18    0.21242      0.00000     0.78577    0.00181     0.78758
      C   19   -0.42392      1.99937     4.41263    0.01192     6.42392
      H   20    0.22567      0.00000     0.77290    0.00143     0.77433
      H   21    0.21333      0.00000     0.78472    0.00195     0.78667
      C   22   -0.17389      1.99905     4.15533    0.01951     6.17389
      H   23    0.22308      0.00000     0.77507    0.00185     0.77692
      C   24   -0.97947      1.99942     4.96328    0.01677     6.97947
      H   25    0.27608      0.00000     0.72236    0.00155     0.72392
      H   26    0.24707      0.00000     0.75081    0.00212     0.75293
      C   27   -0.38805      1.99891     4.36709    0.02205     6.38805
      C   28    0.29547      1.99870     3.68344    0.02238     5.70453
      C   29   -0.28314      1.99908     4.27021    0.01386     6.28314
      H   30    0.22539      0.00000     0.77274    0.00187     0.77461
      C   31   -0.15402      1.99922     4.13963    0.01518     6.15402
      C   32   -0.22193      1.99919     4.20743    0.01532     6.22193
      H   33    0.22515      0.00000     0.77367    0.00118     0.77485
      C   34   -0.17029      1.99913     4.15574    0.01542     6.17029
      C   35   -0.90468      1.99942     4.89568    0.00957     6.90468
      H   36    0.24286      0.00000     0.75599    0.00115     0.75714
      H   37    0.23721      0.00000     0.76087    0.00193     0.76279
      H   38    0.24933      0.00000     0.74946    0.00121     0.75067
      C   39   -0.37289      1.99890     4.35081    0.02319     6.37289
      C   40   -0.17818      1.99912     4.16350    0.01556     6.17818
      C   41    0.29295      1.99870     3.68590    0.02245     5.70705
      C   42   -0.22229      1.99919     4.20780    0.01531     6.22229
      C   43   -0.27988      1.99908     4.26701    0.01379     6.27988
      C   44   -0.15703      1.99922     4.14261    0.01520     6.15703
      H   45    0.22367      0.00000     0.77515    0.00118     0.77633
      H   46    0.22586      0.00000     0.77227    0.00186     0.77414
      C   47   -0.88682      1.99941     4.87802    0.00939     6.88682
      H   48    0.25053      0.00000     0.74819    0.00128     0.74947
      H   49    0.23858      0.00000     0.75968    0.00174     0.76142
      H   50    0.23429      0.00000     0.76447    0.00124     0.76571
      H   51    0.22378      0.00000     0.77509    0.00113     0.77622
      H   52    0.21317      0.00000     0.78484    0.00199     0.78683
      H   53    0.22370      0.00000     0.77517    0.00113     0.77630
      H   54    0.20506      0.00000     0.79257    0.00236     0.79494
      C   55   -0.25869      1.99928     4.24624    0.01318     6.25869
      H   56    0.20351      0.00000     0.79523    0.00126     0.79649
      H   57    0.18199      0.00000     0.81602    0.00199     0.81801
      H   58    0.18600      0.00000     0.81209    0.00191     0.81400
      O   59   -0.47574      1.99976     6.46102    0.01495     8.47574
      O   60   -0.46822      1.99976     6.45289    0.01556     8.46822
      C   61   -0.25653      1.99928     4.24410    0.01315     6.25653
      H   62    0.18420      0.00000     0.81387    0.00192     0.81580
      H   63    0.18279      0.00000     0.81519    0.00202     0.81721
      H   64    0.19888      0.00000     0.79972    0.00140     0.80112
 =======================================================================
   * Total *    1.00000    109.95686   163.42840    0.61474   274.00000

 Normal termination of Gaussian 16 at Tue Nov  5 13:27:52 2024.
