 Gaussian 16, Revision B.01,
 Gaussian 16:  ES64L-G16RevB.01 20-Dec-2017

 ------------------------------------------
 # nmr=giao b3lyp/genecp pop=nbo scfcyc=200
 ------------------------------------------

 ---------
 MB-91_SPE
 ---------
 Symbolic Z-matrix:
 Charge =  1 Multiplicity = 1

                         Standard orientation:
 ---------------------------------------------------------------------
 Center     Atomic      Atomic             Coordinates (Angstroms)
 Number     Number       Type             X           Y           Z
 ---------------------------------------------------------------------
      1         15           0        1.203157    0.855756   -0.113441
      2         15           0       -1.458509    0.063518   -0.104581
      3          6           0        1.999024    0.729561   -1.807391
      4          1           0        1.243735    0.271056   -2.448091
      5          1           0        2.152914    1.748218   -2.168811
      6          6           0       -2.115279   -0.457919   -1.783341
      7          1           0       -1.290066   -0.299845   -2.479451
      8          1           0       -2.901835    0.249777   -2.053951
      9          6           0       -0.472788    1.614439   -0.454351
     10          1           0       -0.605150    2.051222   -1.444801
     11          1           0       -0.696613    2.386474    0.280959
     12          6           0       -2.962759    0.565518    0.909199
     13          1           0       -2.580466    0.722870    1.918739
     14          1           0       -3.599346   -0.320970    0.947309
     15          6           0        2.227492    2.119866    0.834789
     16          1           0        3.265045    1.798356    0.719099
     17          1           0        1.965349    1.976721    1.883429
     18         45           0        0.328639   -1.070627    0.929809
     19          6           0        2.180726   -2.270163    1.533379
     20          6           0        1.922934   -1.329768    2.507619
     21          6           0       -0.810866   -2.358424    2.437939
     22          6           0       -0.618520   -3.090218    1.285929
     23          6           0        1.845047   -3.746216    1.623079
     24          1           0        2.898361   -2.000367    0.766729
     25          1           0        2.497852   -0.410419    2.468759
     26          6           0        1.197360   -1.551224    3.812139
     27          6           0       -0.013399   -2.504030    3.720799
     28          1           0       -1.761086   -1.845896    2.539399
     29          6           0        0.464440   -4.108129    1.032949
     30          1           0       -1.434381   -3.120172    0.571619
     31          1           0        2.608306   -4.305811    1.079829
     32          1           0        1.913630   -4.076398    2.659429
     33          1           0        1.902663   -1.919427    4.567799
     34          1           0        0.858149   -0.577597    4.172839
     35          1           0        0.308321   -3.538946    3.834479
     36          1           0       -0.675245   -2.302567    4.564779
     37          1           0        0.556467   -4.226881   -0.048671
     38          1           0        0.145090   -5.086843    1.412489
     39          6           0        3.273839   -0.074504   -1.848791
     40          6           0        3.229572   -1.460153   -2.030371
     41          6           0        4.522661    0.539781   -1.726721
     42          6           0        4.398677   -2.210056   -2.084491
     43          1           0        2.270922   -1.954285   -2.141051
     44          6           0        5.694626   -0.209152   -1.775551
     45          1           0        4.588872    1.615320   -1.615341
     46          6           0        5.636269   -1.586731   -1.952581
     47          1           0        4.345316   -3.280365   -2.241541
     48          1           0        6.652926    0.287160   -1.687151
     49          1           0        6.547638   -2.168968   -2.000531
     50          6           0        2.037950    3.560500    0.440519
     51          6           0        2.750871    4.135536   -0.615851
     52          6           0        1.138696    4.364718    1.148779
     53          6           0        2.559857    5.468510   -0.963171
     54          1           0        3.482130    3.549562   -1.158581
     55          6           0        0.947282    5.698051    0.804429
     56          1           0        0.603268    3.951358    1.996829
     57          6           0        1.653573    6.252998   -0.257551
     58          1           0        3.129386    5.897549   -1.778101
     59          1           0        0.256454    6.307165    1.374019
     60          1           0        1.510603    7.292530   -0.523481
     61          6           0       -3.719065    1.776633    0.431189
     62          6           0       -3.405260    3.043817    0.933859
     63          6           0       -4.755427    1.672333   -0.501961
     64          6           0       -4.092998    4.173400    0.505439
     65          1           0       -2.633668    3.146102    1.688979
     66          6           0       -5.444535    2.800957   -0.932381
     67          1           0       -5.048396    0.700849   -0.880761
     68          6           0       -5.111550    4.056180   -0.434531
     69          1           0       -3.841439    5.143855    0.914679
     70          1           0       -6.249997    2.697162   -1.648611
     71          1           0       -5.651923    4.934021   -0.764981
     72          6           0       -2.590377   -1.886559   -1.867061
     73          6           0       -1.744136   -2.878146   -2.371491
     74          6           0       -3.876384   -2.255154   -1.462271
     75          6           0       -2.166642   -4.199458   -2.464101
     76          1           0       -0.749461   -2.610835   -2.710041
     77          6           0       -4.300340   -3.577646   -1.548451
     78          1           0       -4.565449   -1.505371   -1.093311
     79          6           0       -3.446129   -4.554703   -2.048111
     80          1           0       -1.501327   -4.950041   -2.872641
     81          1           0       -5.303515   -3.841076   -1.237341
     82          1           0       -3.779149   -5.581846   -2.125221
 ---------------------------------------------------------------------

 SCF Done:  E(RB3LYP) =  -2228.93030331     A.U. after   15 cycles

      1  P    Isotropic =   316.2145   Anisotropy =    70.0056

      2  P    Isotropic =   316.1340   Anisotropy =    63.2784

      3  C    Isotropic =   143.9345   Anisotropy =    40.7404

      4  H    Isotropic =    29.0528   Anisotropy =     4.8067

      5  H    Isotropic =    28.3174   Anisotropy =     6.9318

      6  C    Isotropic =   144.8650   Anisotropy =    41.7312

      7  H    Isotropic =    29.4115   Anisotropy =     4.6367

      8  H    Isotropic =    28.1434   Anisotropy =     6.9913

      9  C    Isotropic =   141.8877   Anisotropy =    44.4807

     10  H    Isotropic =    30.5649   Anisotropy =     5.9003

     11  H    Isotropic =    28.7113   Anisotropy =     7.8482

     12  C    Isotropic =   146.2775   Anisotropy =    35.9131

     13  H    Isotropic =    28.9196   Anisotropy =     4.7247

     14  H    Isotropic =    28.5150   Anisotropy =     5.5410

     15  C    Isotropic =   148.7508   Anisotropy =    35.8488

     16  H    Isotropic =    28.5645   Anisotropy =     5.9531

     17  H    Isotropic =    29.0077   Anisotropy =     5.3453

     18  Rh   Isotropic =  -311.4441   Anisotropy =   341.3208

     19  C    Isotropic =    78.5887   Anisotropy =   123.9252

     20  C    Isotropic =    75.7973   Anisotropy =   117.1458

     21  C    Isotropic =    77.7290   Anisotropy =   122.6549

     22  C    Isotropic =    77.3172   Anisotropy =   118.2698

     23  C    Isotropic =   154.5509   Anisotropy =    24.0709

     24  H    Isotropic =    27.8083   Anisotropy =     9.0679

     25  H    Isotropic =    26.7713   Anisotropy =     3.3810

     26  C    Isotropic =   147.5823   Anisotropy =    30.5890

     27  C    Isotropic =   154.1680   Anisotropy =    25.3500

     28  H    Isotropic =    27.1796   Anisotropy =     5.9196

     29  C    Isotropic =   148.4278   Anisotropy =    29.0029

     30  H    Isotropic =    27.9057   Anisotropy =     9.3424

     31  H    Isotropic =    30.1170   Anisotropy =    10.8004

     32  H    Isotropic =    30.0910   Anisotropy =     9.7147

     33  H    Isotropic =    29.3089   Anisotropy =    12.6935

     34  H    Isotropic =    29.2514   Anisotropy =     8.0176

     35  H    Isotropic =    29.9828   Anisotropy =     9.2625

     36  H    Isotropic =    30.0348   Anisotropy =    11.6127

     37  H    Isotropic =    29.4346   Anisotropy =     6.7906

     38  H    Isotropic =    29.4743   Anisotropy =    11.6933

     39  C    Isotropic =    46.1492   Anisotropy =   185.5685

     40  C    Isotropic =    48.8049   Anisotropy =   169.4082

     41  C    Isotropic =    49.8650   Anisotropy =   168.0001

     42  C    Isotropic =    49.3060   Anisotropy =   187.9713

     43  H    Isotropic =    24.0068   Anisotropy =     7.8176

     44  C    Isotropic =    48.7682   Anisotropy =   189.0416

     45  H    Isotropic =    24.2222   Anisotropy =     9.4116

     46  C    Isotropic =    49.2456   Anisotropy =   192.2033

     47  H    Isotropic =    24.1294   Anisotropy =     6.7036

     48  H    Isotropic =    24.1543   Anisotropy =     5.5596

     49  H    Isotropic =    24.1798   Anisotropy =     4.1244

     50  C    Isotropic =    46.3878   Anisotropy =   184.1415

     51  C    Isotropic =    50.3399   Anisotropy =   168.5302

     52  C    Isotropic =    48.7936   Anisotropy =   163.2351

     53  C    Isotropic =    48.5146   Anisotropy =   189.6465

     54  H    Isotropic =    24.2368   Anisotropy =     9.7243

     55  C    Isotropic =    48.8022   Anisotropy =   188.7135

     56  H    Isotropic =    24.4923   Anisotropy =     9.2449

     57  C    Isotropic =    49.2660   Anisotropy =   192.8212

     58  H    Isotropic =    24.1572   Anisotropy =     5.9565

     59  H    Isotropic =    24.0909   Anisotropy =     6.1430

     60  H    Isotropic =    24.2030   Anisotropy =     4.0071

     61  C    Isotropic =    47.6455   Anisotropy =   181.9409

     62  C    Isotropic =    49.0101   Anisotropy =   163.8582

     63  C    Isotropic =    49.8566   Anisotropy =   168.1970

     64  C    Isotropic =    48.8135   Anisotropy =   188.5047

     65  H    Isotropic =    24.5780   Anisotropy =     9.2143

     66  C    Isotropic =    48.6559   Anisotropy =   189.3109

     67  H    Isotropic =    24.2588   Anisotropy =     9.6316

     68  C    Isotropic =    49.0887   Anisotropy =   192.7853

     69  H    Isotropic =    24.2022   Anisotropy =     6.4349

     70  H    Isotropic =    24.1726   Anisotropy =     6.0820

     71  H    Isotropic =    24.2306   Anisotropy =     4.1781

     72  C    Isotropic =    43.7405   Anisotropy =   188.3888

     73  C    Isotropic =    48.8383   Anisotropy =   164.7697

     74  C    Isotropic =    51.0555   Anisotropy =   170.4570

     75  C    Isotropic =    48.6219   Anisotropy =   189.3100

     76  H    Isotropic =    24.1081   Anisotropy =     7.9846

     77  C    Isotropic =    48.6755   Anisotropy =   189.9033

     78  H    Isotropic =    24.2279   Anisotropy =     9.4473

     79  C    Isotropic =    49.2311   Anisotropy =   193.1475

     80  H    Isotropic =    24.0484   Anisotropy =     5.9964

     81  H    Isotropic =    24.1278   Anisotropy =     5.6438

     82  H    Isotropic =    24.1416   Anisotropy =     3.8126

 The electronic state is 1-A.
 Alpha  occ. eigenvalues --  -77.23658 -77.23646 -10.30138 -10.30018 -10.29983
 Alpha  occ. eigenvalues --  -10.29950 -10.29916 -10.29200 -10.29063 -10.28845
 Alpha  occ. eigenvalues --  -10.28831 -10.28831 -10.28782 -10.28778 -10.28655
 Alpha  occ. eigenvalues --  -10.27627 -10.27429 -10.27370 -10.27226 -10.27224
 Alpha  occ. eigenvalues --  -10.27147 -10.27147 -10.27122 -10.27110 -10.27098
 Alpha  occ. eigenvalues --  -10.27081 -10.27061 -10.26874 -10.26841 -10.26810
 Alpha  occ. eigenvalues --  -10.26763 -10.26709 -10.26698 -10.26678 -10.26631
 Alpha  occ. eigenvalues --  -10.26580 -10.26485 -10.26443 -10.26376  -6.69654
 Alpha  occ. eigenvalues --   -6.69643  -4.85944  -4.85933  -4.85858  -4.85847
 Alpha  occ. eigenvalues --   -4.85549  -4.85535  -3.31607  -2.08517  -2.07828
 Alpha  occ. eigenvalues --   -2.05051  -0.96229  -0.96121  -0.95844  -0.95833
 Alpha  occ. eigenvalues --   -0.94448  -0.91048  -0.89447  -0.89161  -0.88015
 Alpha  occ. eigenvalues --   -0.87634  -0.87583  -0.85661  -0.84458  -0.84402
 Alpha  occ. eigenvalues --   -0.84324  -0.84288  -0.81693  -0.80349  -0.79589
 Alpha  occ. eigenvalues --   -0.79152  -0.79085  -0.77825  -0.70748  -0.70696
 Alpha  occ. eigenvalues --   -0.70568  -0.70445  -0.70333  -0.70282  -0.69569
 Alpha  occ. eigenvalues --   -0.68597  -0.68525  -0.66177  -0.66081  -0.65811
 Alpha  occ. eigenvalues --   -0.62460  -0.61353  -0.61322  -0.60986  -0.60732
 Alpha  occ. eigenvalues --   -0.60024  -0.58058  -0.57484  -0.57378  -0.57030
 Alpha  occ. eigenvalues --   -0.56666  -0.56228  -0.55874  -0.55699  -0.55618
 Alpha  occ. eigenvalues --   -0.55570  -0.54899  -0.54530  -0.53651  -0.53018
 Alpha  occ. eigenvalues --   -0.52673  -0.52588  -0.52343  -0.52256  -0.52182
 Alpha  occ. eigenvalues --   -0.51607  -0.51577  -0.51543  -0.51506  -0.51267
 Alpha  occ. eigenvalues --   -0.50873  -0.50404  -0.50153  -0.48707  -0.48493
 Alpha  occ. eigenvalues --   -0.48254  -0.47791  -0.47107  -0.46401  -0.46078
 Alpha  occ. eigenvalues --   -0.46014  -0.45344  -0.45038  -0.44810  -0.44757
 Alpha  occ. eigenvalues --   -0.44585  -0.44285  -0.44251  -0.44131  -0.43635
 Alpha  occ. eigenvalues --   -0.43568  -0.43294  -0.43046  -0.42828  -0.42234
 Alpha  occ. eigenvalues --   -0.41409  -0.37503  -0.36698  -0.35820  -0.35379
 Alpha  occ. eigenvalues --   -0.35249  -0.35190  -0.35091  -0.35037  -0.34536
 Alpha  occ. eigenvalues --   -0.34290  -0.34114  -0.33676  -0.33530  -0.30848
 Alpha virt. eigenvalues --   -0.16495  -0.14488  -0.11637  -0.11561  -0.11176
 Alpha virt. eigenvalues --   -0.11028  -0.10855  -0.10815  -0.10676  -0.10162
 Alpha virt. eigenvalues --   -0.09328  -0.08345  -0.08043  -0.07308  -0.06809

 Mulliken charges:
               1
     1  P    0.410804
     2  P    0.440123
     3  C   -0.541873
     4  H    0.184517
     5  H    0.218598
     6  C   -0.549468
     7  H    0.190267
     8  H    0.227707
     9  C   -0.528815
    10  H    0.211446
    11  H    0.183880
    12  C   -0.587134
    13  H    0.209297
    14  H    0.207058
    15  C   -0.570010
    16  H    0.217295
    17  H    0.203057
    18  Rh  -0.531688
    19  C   -0.006437
    20  C   -0.121782
    21  C   -0.026074
    22  C   -0.080547
    23  C   -0.366921
    24  H    0.226152
    25  H    0.189902
    26  C   -0.215105
    27  C   -0.344294
    28  H    0.179860
    29  C   -0.237726
    30  H    0.214565
    31  H    0.167984
    32  H    0.166800
    33  H    0.172064
    34  H    0.126599
    35  H    0.168634
    36  H    0.168247
    37  H    0.133004
    38  H    0.171283
    39  C    0.071422
    40  C   -0.138959
    41  C   -0.107015
    42  C   -0.104148
    43  H    0.115212
    44  C   -0.105070
    45  H    0.144891
    46  C   -0.100625
    47  H    0.126065
    48  H    0.128983
    49  H    0.133080
    50  C    0.124367
    51  C   -0.119898
    52  C   -0.181271
    53  C   -0.102727
    54  H    0.141467
    55  C   -0.087293
    56  H    0.128756
    57  C   -0.107811
    58  H    0.129897
    59  H    0.127058
    60  H    0.134532
    61  C    0.149642
    62  C   -0.165693
    63  C   -0.136370
    64  C   -0.098903
    65  H    0.125143
    66  C   -0.098952
    67  H    0.148706
    68  C   -0.105213
    69  H    0.126724
    70  H    0.129927
    71  H    0.134442
    72  C    0.047990
    73  C   -0.118056
    74  C   -0.075072
    75  C   -0.130088
    76  H    0.123282
    77  C   -0.121594
    78  H    0.130121
    79  C   -0.089965
    80  H    0.128061
    81  H    0.128793
    82  H    0.134892
 Sum of Mulliken charges =   1.00000

 Dipole moment (field-independent basis, Debye):
    X=             -0.0231    Y=             -0.0279    Z=              0.8349  Tot=              0.8357
 Quadrupole moment (field-independent basis, Debye-Ang):
   XX=           -213.6160   YY=           -202.9274   ZZ=           -247.4584
   XY=             -2.8586   XZ=             -0.3154   YZ=             -3.3820

 Summary of Natural Population Analysis:

                                       Natural Population
                Natural  -----------------------------------------------
    Atom  No    Charge         Core      Valence    Rydberg      Total
 -----------------------------------------------------------------------
      P    1    1.10355      9.99679     3.85136    0.04830    13.89645
      P    2    1.10521      9.99678     3.84955    0.04846    13.89479
      C    3   -0.67905      1.99932     4.66470    0.01503     6.67905
      H    4    0.23483      0.00000     0.76303    0.00214     0.76517
      H    5    0.24378      0.00000     0.75326    0.00297     0.75622
      C    6   -0.68240      1.99931     4.66799    0.01510     6.68240
      H    7    0.23418      0.00000     0.76366    0.00216     0.76582
      H    8    0.24899      0.00000     0.74802    0.00299     0.75101
      C    9   -0.99622      1.99943     4.97927    0.01752     6.99622
      H   10    0.25835      0.00000     0.73963    0.00202     0.74165
      H   11    0.27029      0.00000     0.72749    0.00222     0.72971
      C   12   -0.67609      1.99932     4.66363    0.01314     6.67609
      H   13    0.24207      0.00000     0.75594    0.00199     0.75793
      H   14    0.24499      0.00000     0.75250    0.00251     0.75501
      C   15   -0.67873      1.99931     4.66630    0.01312     6.67873
      H   16    0.24946      0.00000     0.74791    0.00263     0.75054
      H   17    0.24011      0.00000     0.75793    0.00196     0.75989
     Rh   18   -0.40346     35.98587     9.39339    0.02419    45.40346
      C   19   -0.18105      1.99907     4.16216    0.01982     6.18105
      C   20   -0.15525      1.99908     4.13617    0.01999     6.15525
      C   21   -0.16579      1.99908     4.14734    0.01938     6.16579
      C   22   -0.16856      1.99910     4.14848    0.02098     6.16856
      C   23   -0.42378      1.99936     4.41257    0.01185     6.42378
      H   24    0.23679      0.00000     0.76105    0.00217     0.76321
      H   25    0.22054      0.00000     0.77768    0.00179     0.77946
      C   26   -0.41832      1.99935     4.40624    0.01273     6.41832
      C   27   -0.42459      1.99936     4.41319    0.01204     6.42459
      H   28    0.22083      0.00000     0.77737    0.00181     0.77917
      C   29   -0.41924      1.99935     4.40669    0.01320     6.41924
      H   30    0.23745      0.00000     0.76016    0.00238     0.76255
      H   31    0.22809      0.00000     0.77044    0.00147     0.77191
      H   32    0.21401      0.00000     0.78407    0.00193     0.78599
      H   33    0.23353      0.00000     0.76466    0.00181     0.76647
      H   34    0.21429      0.00000     0.78418    0.00153     0.78571
      H   35    0.21543      0.00000     0.78268    0.00189     0.78457
      H   36    0.22799      0.00000     0.77061    0.00140     0.77201
      H   37    0.21653      0.00000     0.78157    0.00190     0.78347
      H   38    0.23398      0.00000     0.76425    0.00177     0.76602
      C   39   -0.05121      1.99910     4.03262    0.01950     6.05121
      C   40   -0.20423      1.99910     4.19037    0.01477     6.20423
      C   41   -0.20583      1.99909     4.19248    0.01425     6.20583
      C   42   -0.19488      1.99920     4.18095    0.01473     6.19488
      H   43    0.20775      0.00000     0.79052    0.00173     0.79225
      C   44   -0.18869      1.99921     4.17474    0.01475     6.18869
      H   45    0.20272      0.00000     0.79560    0.00168     0.79728
      C   46   -0.19607      1.99920     4.18208    0.01479     6.19607
      H   47    0.21683      0.00000     0.78190    0.00127     0.78317
      H   48    0.22024      0.00000     0.77854    0.00122     0.77976
      H   49    0.22105      0.00000     0.77775    0.00119     0.77895
      C   50   -0.04966      1.99910     4.03052    0.02004     6.04966
      C   51   -0.20912      1.99909     4.19555    0.01448     6.20912
      C   52   -0.21042      1.99910     4.19677    0.01456     6.21042
      C   53   -0.18681      1.99921     4.17297    0.01464     6.18681
      H   54    0.20157      0.00000     0.79671    0.00173     0.79843
      C   55   -0.18944      1.99920     4.17549    0.01475     6.18944
      H   56    0.20260      0.00000     0.79580    0.00160     0.79740
      C   57   -0.19513      1.99920     4.18123    0.01469     6.19513
      H   58    0.21981      0.00000     0.77898    0.00121     0.78019
      H   59    0.21757      0.00000     0.78119    0.00124     0.78243
      H   60    0.22109      0.00000     0.77772    0.00119     0.77891
      C   61   -0.05278      1.99910     4.03360    0.02008     6.05278
      C   62   -0.20708      1.99910     4.19352    0.01446     6.20708
      C   63   -0.20980      1.99909     4.19628    0.01443     6.20980
      C   64   -0.18907      1.99921     4.17515    0.01471     6.18907
      H   65    0.20146      0.00000     0.79686    0.00168     0.79854
      C   66   -0.18748      1.99921     4.17363    0.01465     6.18748
      H   67    0.20251      0.00000     0.79577    0.00172     0.79749
      C   68   -0.19432      1.99920     4.18046    0.01465     6.19432
      H   69    0.21776      0.00000     0.78099    0.00124     0.78224
      H   70    0.22004      0.00000     0.77874    0.00121     0.77996
      H   71    0.22112      0.00000     0.77770    0.00119     0.77888
      C   72   -0.04728      1.99910     4.02884    0.01934     6.04728
      C   73   -0.20305      1.99910     4.18908    0.01487     6.20305
      C   74   -0.21020      1.99909     4.19704    0.01407     6.21020
      C   75   -0.19338      1.99920     4.17940    0.01478     6.19338
      H   76    0.20512      0.00000     0.79318    0.00170     0.79488
      C   77   -0.18890      1.99921     4.17491    0.01479     6.18890
      H   78    0.20177      0.00000     0.79652    0.00171     0.79823
      C   79   -0.19829      1.99920     4.18421    0.01488     6.19829
      H   80    0.21808      0.00000     0.78067    0.00125     0.78192
      H   81    0.22005      0.00000     0.77872    0.00123     0.77995
      H   82    0.22129      0.00000     0.77752    0.00119     0.77871
 =======================================================================
   * Total *    1.00000    129.94948   207.28037    0.77015   338.00000

 Normal termination of Gaussian 16 at Tue Jan 21 17:16:28 2025.
