 Gaussian 16, Revision B.01,
 Gaussian 16:  ES64L-G16RevB.01 20-Dec-2017

 ------------------------------------------
 # nmr=giao b3lyp/genecp pop=nbo scfcyc=200
 ------------------------------------------

 ---------
 MB-92_SPE
 ---------
 Symbolic Z-matrix:
 Charge =  1 Multiplicity = 1

                         Standard orientation:
 ---------------------------------------------------------------------
 Center     Atomic      Atomic             Coordinates (Angstroms)
 Number     Number       Type             X           Y           Z
 ---------------------------------------------------------------------
      1          6           0       -0.048430   -1.475540    0.026550
      2          1           0       -0.388320   -2.083720   -0.807160
      3          1           0        0.248160   -2.141040    0.830790
      4         45           0        0.009910    1.684740    0.044670
      5          6           0       -1.457859    3.395730   -0.095470
      6          6           0       -1.130769    3.191080    1.232350
      7          6           0        1.576451    3.262410    0.300380
      8          6           0        1.231891    3.191290   -1.039030
      9          6           0       -0.941499    4.521710   -0.970420
     10          1           0       -2.359109    2.919661   -0.452520
     11          1           0       -1.823219    2.600710    1.819720
     12          6           0       -0.136359    3.982020    2.043690
     13          6           0        1.142111    4.349660    1.265600
     14          1           0        2.440351    2.693590    0.615910
     15          6           0        0.306591    4.123090   -1.779510
     16          1           0        1.865681    2.596070   -1.686280
     17          1           0       -1.732459    4.813090   -1.663360
     18          1           0       -0.738559    5.401050   -0.359420
     19          1           0       -0.613649    4.888410    2.436890
     20          1           0        0.134841    3.384390    2.916890
     21          1           0        1.007281    5.288230    0.728570
     22          1           0        1.949661    4.524880    1.978190
     23          1           0       -0.006319    3.622720   -2.698400
     24          1           0        0.855801    5.018220   -2.097060
     25          6           0       -1.518360   -0.586430    2.495050
     26          6           0       -3.134420   -0.965729    0.280710
     27          6           0       -2.387330   -1.854219    2.504300
     28          1           0       -0.553810   -0.624480    2.992940
     29          6           0       -3.612130   -1.230929    1.790970
     30          1           0       -2.628590   -2.143459    3.528950
     31          1           0       -1.948061   -2.702709    1.989550
     32          1           0       -4.512870   -1.840709    1.807590
     33          6           0        1.329300   -0.720290   -2.432210
     34          6           0        3.059760   -1.109641   -0.320440
     35          6           0        1.996170   -2.107980   -2.390390
     36          1           0        0.338900   -0.641150   -2.873830
     37          6           0        3.345720   -1.634891   -1.813300
     38          1           0        2.116370   -2.502540   -3.401130
     39          1           0        1.482009   -2.846610   -1.783590
     40          1           0        4.134650   -2.385821   -1.815260
     41         15           0       -1.353690   -0.265160    0.615570
     42         15           0        1.306030   -0.304330   -0.563810
     43          6           0       -3.733380    0.050751    2.601380
     44          1           0       -4.658920    0.575711    2.781690
     45          6           0       -2.517160    0.423591    3.005090
     46          1           0       -2.260070    1.305911    3.573110
     47          6           0        2.427990    0.089980   -3.072030
     48          1           0        2.266020    0.981460   -3.661370
     49          6           0        3.601060   -0.454791   -2.740460
     50          1           0        4.579210   -0.091381   -3.018060
     51         14           0        4.482780    0.136049    0.242590
     52         14           0        3.035049   -2.624171    0.946100
     53         14           0       -3.265971   -2.718929   -0.643540
     54         14           0       -4.188660    0.348861   -0.743170
     55          6           0       -3.186470    0.927351   -2.252250
     56          1           0       -3.132780    0.157191   -3.021260
     57          1           0       -3.688850    1.790751   -2.697090
     58          1           0       -2.166750    1.226671   -2.004710
     59          6           0       -5.837940   -0.310019   -1.412500
     60          1           0       -6.330470    0.533341   -1.905540
     61          1           0       -5.743880   -1.104149   -2.152010
     62          1           0       -6.507760   -0.651628   -0.621580
     63          6           0       -4.727830    1.870501    0.263640
     64          1           0       -5.080619    2.623811   -0.447050
     65          1           0       -5.575130    1.622991    0.905660
     66          1           0       -3.964119    2.328841    0.886510
     67          6           0       -2.898920   -2.576779   -2.501450
     68          1           0       -2.866281   -3.585949   -2.919680
     69          1           0       -3.667950   -2.027859   -3.044320
     70          1           0       -1.939190   -2.103579   -2.718270
     71          6           0       -5.006221   -3.434409   -0.389270
     72          1           0       -5.828021   -2.780999   -0.666010
     73          1           0       -5.080261   -4.335519   -1.005040
     74          1           0       -5.154411   -3.749249    0.645850
     75          6           0       -2.180131   -4.149689    0.003160
     76          1           0       -2.509101   -4.500989    0.982130
     77          1           0       -2.338661   -4.978139   -0.693900
     78          1           0       -1.108561   -3.972820    0.048350
     79          6           0        2.224369   -4.194030    0.239310
     80          1           0        2.751209   -4.561301   -0.643660
     81          1           0        2.313889   -4.967980    1.007010
     82          1           0        1.167669   -4.110860   -0.008710
     83          6           0        2.159680   -2.150210    2.577970
     84          1           0        1.838390   -1.109270    2.614610
     85          1           0        1.288679   -2.783250    2.761160
     86          1           0        2.842470   -2.303681    3.415980
     87          6           0        4.771069   -3.230081    1.409540
     88          1           0        4.630929   -4.150661    1.983550
     89          1           0        5.388009   -3.479051    0.545360
     90          1           0        5.325300   -2.538241    2.041960
     91          6           0        6.195500   -0.626941   -0.065300
     92          1           0        6.926680    0.181019    0.027380
     93          1           0        6.485780   -1.411341    0.627280
     94          1           0        6.288780   -1.021711   -1.079640
     95          6           0        4.281070    0.571509    2.078290
     96          1           0        4.382680   -0.288221    2.740680
     97          1           0        5.059050    1.287699    2.354710
     98          1           0        3.315880    1.038429    2.287590
     99          6           0        4.611640    1.776729   -0.716430
    100          1           0        5.107411    2.501619   -0.063920
    101          1           0        5.247320    1.650819   -1.593300
    102          1           0        3.680851    2.217669   -1.052990
 ---------------------------------------------------------------------

 SCF Done:  E(RB3LYP) =  -3246.59303771     A.U. after   16 cycles

      1  C    Isotropic =   119.4894   Anisotropy =    72.5597

      2  H    Isotropic =    28.5615   Anisotropy =    10.8082

      3  H    Isotropic =    28.1565   Anisotropy =     9.6521

      4  Rh   Isotropic =  -394.1877   Anisotropy =   447.1161

      5  C    Isotropic =    80.1322   Anisotropy =   122.9300

      6  C    Isotropic =    78.9577   Anisotropy =   115.5480

      7  C    Isotropic =    83.9908   Anisotropy =   119.8018

      8  C    Isotropic =    79.8672   Anisotropy =   113.8824

      9  C    Isotropic =   154.6192   Anisotropy =    25.1640

     10  H    Isotropic =    27.5175   Anisotropy =     7.8966

     11  H    Isotropic =    27.0207   Anisotropy =     4.2488

     12  C    Isotropic =   148.3807   Anisotropy =    29.8245

     13  C    Isotropic =   154.6838   Anisotropy =    25.2631

     14  H    Isotropic =    27.4482   Anisotropy =     8.4863

     15  C    Isotropic =   147.0834   Anisotropy =    30.9638

     16  H    Isotropic =    27.1694   Anisotropy =     4.1736

     17  H    Isotropic =    30.0019   Anisotropy =    10.6556

     18  H    Isotropic =    30.0234   Anisotropy =     9.7935

     19  H    Isotropic =    29.2655   Anisotropy =    12.7403

     20  H    Isotropic =    29.0471   Anisotropy =     6.2963

     21  H    Isotropic =    30.0415   Anisotropy =     9.7319

     22  H    Isotropic =    29.9562   Anisotropy =    10.7355

     23  H    Isotropic =    29.0446   Anisotropy =     6.1805

     24  H    Isotropic =    29.2707   Anisotropy =    12.6703

     25  C    Isotropic =   127.2522   Anisotropy =    23.2616

     26  C    Isotropic =   136.9288   Anisotropy =    28.6531

     27  C    Isotropic =   130.4179   Anisotropy =    22.0219

     28  H    Isotropic =    28.2655   Anisotropy =     7.6165

     29  C    Isotropic =   129.5055   Anisotropy =    20.9762

     30  H    Isotropic =    30.0360   Anisotropy =    11.4331

     31  H    Isotropic =    30.2128   Anisotropy =     8.3524

     32  H    Isotropic =    28.5954   Anisotropy =     8.0805

     33  C    Isotropic =   124.8081   Anisotropy =    22.7417

     34  C    Isotropic =   134.3325   Anisotropy =    35.1342

     35  C    Isotropic =   132.2268   Anisotropy =    19.8827

     36  H    Isotropic =    28.3170   Anisotropy =     7.3728

     37  C    Isotropic =   130.0620   Anisotropy =    19.6525

     38  H    Isotropic =    30.0492   Anisotropy =    11.3824

     39  H    Isotropic =    30.3438   Anisotropy =     7.0740

     40  H    Isotropic =    28.7675   Anisotropy =     8.1550

     41  P    Isotropic =   301.5242   Anisotropy =   123.1552

     42  P    Isotropic =   306.4056   Anisotropy =   124.6312

     43  C    Isotropic =    30.3783   Anisotropy =   181.2419

     44  H    Isotropic =    25.3712   Anisotropy =     4.1293

     45  C    Isotropic =    46.2611   Anisotropy =   161.0874

     46  H    Isotropic =    25.4662   Anisotropy =     3.4895

     47  C    Isotropic =    47.1340   Anisotropy =   159.2486

     48  H    Isotropic =    25.5839   Anisotropy =     2.8435

     49  C    Isotropic =    30.4280   Anisotropy =   182.0327

     50  H    Isotropic =    25.2703   Anisotropy =     4.2466

     51  Si   Isotropic =   335.4766   Anisotropy =    41.0044

     52  Si   Isotropic =   337.5758   Anisotropy =    30.5867

     53  Si   Isotropic =   331.8031   Anisotropy =    45.9145

     54  Si   Isotropic =   336.3909   Anisotropy =    28.5770

     55  C    Isotropic =   178.9622   Anisotropy =    11.6508

     56  H    Isotropic =    31.2599   Anisotropy =     6.6693

     57  H    Isotropic =    31.7154   Anisotropy =     9.8916

     58  H    Isotropic =    30.3949   Anisotropy =    12.0429

     59  C    Isotropic =   178.6396   Anisotropy =    10.0790

     60  H    Isotropic =    31.6546   Anisotropy =    10.6837

     61  H    Isotropic =    31.6549   Anisotropy =     6.8112

     62  H    Isotropic =    31.5509   Anisotropy =     8.4759

     63  C    Isotropic =   177.2114   Anisotropy =     5.5398

     64  H    Isotropic =    32.1055   Anisotropy =     9.7882

     65  H    Isotropic =    32.0426   Anisotropy =     8.8685

     66  H    Isotropic =    32.4960   Anisotropy =     7.6634

     67  C    Isotropic =   180.3116   Anisotropy =     7.9007

     68  H    Isotropic =    31.6601   Anisotropy =    11.1731

     69  H    Isotropic =    31.3042   Anisotropy =     7.0492

     70  H    Isotropic =    31.7202   Anisotropy =     8.4524

     71  C    Isotropic =   181.3722   Anisotropy =    15.6002

     72  H    Isotropic =    31.3672   Anisotropy =     9.4824

     73  H    Isotropic =    31.7598   Anisotropy =    11.1685

     74  H    Isotropic =    31.6290   Anisotropy =     8.1516

     75  C    Isotropic =   175.3165   Anisotropy =    12.5826

     76  H    Isotropic =    31.6186   Anisotropy =     6.9062

     77  H    Isotropic =    31.7461   Anisotropy =    10.3229

     78  H    Isotropic =    31.9038   Anisotropy =    11.0155

     79  C    Isotropic =   178.1840   Anisotropy =     9.3919

     80  H    Isotropic =    31.6006   Anisotropy =     7.8471

     81  H    Isotropic =    31.7473   Anisotropy =    10.7880

     82  H    Isotropic =    32.0413   Anisotropy =     9.8284

     83  C    Isotropic =   179.9438   Anisotropy =     8.2206

     84  H    Isotropic =    31.5120   Anisotropy =     6.0611

     85  H    Isotropic =    31.5947   Anisotropy =     7.5678

     86  H    Isotropic =    31.2943   Anisotropy =     9.9881

     87  C    Isotropic =   177.4069   Anisotropy =    12.1131

     88  H    Isotropic =    31.6489   Anisotropy =    10.6883

     89  H    Isotropic =    31.4848   Anisotropy =     8.0693

     90  H    Isotropic =    31.5278   Anisotropy =     6.9957

     91  C    Isotropic =   181.4099   Anisotropy =    13.3166

     92  H    Isotropic =    31.8459   Anisotropy =    11.2484

     93  H    Isotropic =    31.4757   Anisotropy =     8.7845

     94  H    Isotropic =    31.6760   Anisotropy =     7.0474

     95  C    Isotropic =   181.5286   Anisotropy =     6.7626

     96  H    Isotropic =    31.6127   Anisotropy =     6.9469

     97  H    Isotropic =    31.7800   Anisotropy =    11.5346

     98  H    Isotropic =    31.5767   Anisotropy =     7.8979

     99  C    Isotropic =   174.8206   Anisotropy =    11.9876

    100  H    Isotropic =    32.0531   Anisotropy =     9.4794

    101  H    Isotropic =    32.1166   Anisotropy =     7.8201

    102  H    Isotropic =    32.6664   Anisotropy =    11.2657

 The electronic state is 1-A.
 Alpha  occ. eigenvalues --  -77.22829 -77.22691 -66.23186 -66.23161 -66.22658
 Alpha  occ. eigenvalues --  -66.22546 -10.29784 -10.29684 -10.29483 -10.29431
 Alpha  occ. eigenvalues --  -10.29424 -10.28880 -10.28838 -10.28790 -10.28703
 Alpha  occ. eigenvalues --  -10.28696 -10.28607 -10.27516 -10.27466 -10.27400
 Alpha  occ. eigenvalues --  -10.27378 -10.27356 -10.27309 -10.27112 -10.27103
 Alpha  occ. eigenvalues --  -10.27092 -10.27063 -10.24384 -10.24172 -10.24080
 Alpha  occ. eigenvalues --  -10.24066 -10.23671 -10.23569 -10.23560 -10.23512
 Alpha  occ. eigenvalues --  -10.23311 -10.23278 -10.23246 -10.22971  -6.68671
 Alpha  occ. eigenvalues --   -6.68564  -5.36922  -5.36881  -5.36403  -5.36292
 Alpha  occ. eigenvalues --   -4.84958  -4.84878  -4.84854  -4.84775  -4.84583
 Alpha  occ. eigenvalues --   -4.84465  -3.72851  -3.72816  -3.72778  -3.72769
 Alpha  occ. eigenvalues --   -3.72745  -3.72713  -3.72331  -3.72259  -3.72250
 Alpha  occ. eigenvalues --   -3.72226  -3.72150  -3.72132  -3.31615  -2.08452
 Alpha  occ. eigenvalues --   -2.07846  -2.05059  -0.98112  -0.97981  -0.94456
 Alpha  occ. eigenvalues --   -0.89026  -0.87951  -0.87170  -0.84061  -0.83663
 Alpha  occ. eigenvalues --   -0.82330  -0.81593  -0.80816  -0.80594  -0.80367
 Alpha  occ. eigenvalues --   -0.80309  -0.79935  -0.77835  -0.77672  -0.77651
 Alpha  occ. eigenvalues --   -0.77427  -0.77130  -0.77018  -0.76791  -0.76766
 Alpha  occ. eigenvalues --   -0.76222  -0.76009  -0.75498  -0.70442  -0.66956
 Alpha  occ. eigenvalues --   -0.66734  -0.66618  -0.65874  -0.65641  -0.62690
 Alpha  occ. eigenvalues --   -0.62528  -0.62382  -0.62099  -0.61610  -0.60251
 Alpha  occ. eigenvalues --   -0.58177  -0.57511  -0.57011  -0.56464  -0.56371
 Alpha  occ. eigenvalues --   -0.56240  -0.54851  -0.53548  -0.53411  -0.52896
 Alpha  occ. eigenvalues --   -0.52742  -0.52526  -0.52228  -0.52030  -0.51438
 Alpha  occ. eigenvalues --   -0.51232  -0.50883  -0.50662  -0.50637  -0.50495
 Alpha  occ. eigenvalues --   -0.50395  -0.50168  -0.49772  -0.49602  -0.49465
 Alpha  occ. eigenvalues --   -0.49418  -0.49016  -0.48889  -0.48804  -0.48488
 Alpha  occ. eigenvalues --   -0.48157  -0.48105  -0.47947  -0.47778  -0.47709
 Alpha  occ. eigenvalues --   -0.47423  -0.47259  -0.47156  -0.47059  -0.46961
 Alpha  occ. eigenvalues --   -0.46840  -0.46594  -0.46357  -0.46319  -0.46022
 Alpha  occ. eigenvalues --   -0.45843  -0.45777  -0.45714  -0.44826  -0.44383
 Alpha  occ. eigenvalues --   -0.44211  -0.43244  -0.43049  -0.42872  -0.41877
 Alpha  occ. eigenvalues --   -0.41622  -0.41513  -0.40878  -0.39821  -0.39560
 Alpha  occ. eigenvalues --   -0.39242  -0.39195  -0.39071  -0.38812  -0.38591
 Alpha  occ. eigenvalues --   -0.38273  -0.37462  -0.36852  -0.35905  -0.35466
 Alpha  occ. eigenvalues --   -0.35200  -0.35166  -0.34606  -0.33812  -0.33453
 Alpha  occ. eigenvalues --   -0.30759
 Alpha virt. eigenvalues --   -0.16436  -0.14896  -0.11017  -0.10758  -0.09131
 Alpha virt. eigenvalues --   -0.08774  -0.08018  -0.07542  -0.07042  -0.06530
 Alpha virt. eigenvalues --   -0.06326  -0.06252  -0.05456  -0.05061  -0.04693

 Mulliken charges:
               1
     1  C   -0.593396
     2  H    0.217051
     3  H    0.219772
     4  Rh  -0.536113
     5  C   -0.065653
     6  C   -0.057404
     7  C   -0.041847
     8  C   -0.068563
     9  C   -0.352752
    10  H    0.204362
    11  H    0.197853
    12  C   -0.244859
    13  C   -0.353594
    14  H    0.194199
    15  C   -0.250761
    16  H    0.182631
    17  H    0.167113
    18  H    0.170620
    19  H    0.171167
    20  H    0.130884
    21  H    0.171245
    22  H    0.168608
    23  H    0.136445
    24  H    0.169858
    25  C   -0.053061
    26  C   -0.378955
    27  C   -0.454804
    28  H    0.258937
    29  C   -0.130391
    30  H    0.166196
    31  H    0.188691
    32  H    0.241796
    33  C   -0.104292
    34  C   -0.350909
    35  C   -0.443339
    36  H    0.238335
    37  C   -0.161577
    38  H    0.170015
    39  H    0.184007
    40  H    0.239966
    41  P    0.358754
    42  P    0.388623
    43  C   -0.145717
    44  H    0.149247
    45  C   -0.300303
    46  H    0.133499
    47  C   -0.222700
    48  H    0.135072
    49  C   -0.154114
    50  H    0.153236
    51  Si   0.542400
    52  Si   0.606011
    53  Si   0.550063
    54  Si   0.601667
    55  C   -0.608664
    56  H    0.157875
    57  H    0.153294
    58  H    0.141160
    59  C   -0.551588
    60  H    0.153692
    61  H    0.154579
    62  H    0.146608
    63  C   -0.582295
    64  H    0.160006
    65  H    0.153279
    66  H    0.157281
    67  C   -0.548183
    68  H    0.157887
    69  H    0.157154
    70  H    0.124836
    71  C   -0.529028
    72  H    0.168514
    73  H    0.152294
    74  H    0.136790
    75  C   -0.555496
    76  H    0.152353
    77  H    0.162040
    78  H    0.117356
    79  C   -0.577043
    80  H    0.155389
    81  H    0.164178
    82  H    0.128062
    83  C   -0.638266
    84  H    0.140949
    85  H    0.155230
    86  H    0.172102
    87  C   -0.539074
    88  H    0.157335
    89  H    0.151406
    90  H    0.153428
    91  C   -0.538453
    92  H    0.153681
    93  H    0.157625
    94  H    0.138721
    95  C   -0.547483
    96  H    0.155189
    97  H    0.158489
    98  H    0.133178
    99  C   -0.545653
   100  H    0.155284
   101  H    0.147315
   102  H    0.133446
 Sum of Mulliken charges =   1.00000

 Dipole moment (field-independent basis, Debye):
    X=             -0.1167    Y=              0.4788    Z=              0.2065  Tot=              0.5343
 Quadrupole moment (field-independent basis, Debye-Ang):
   XX=           -254.2566   YY=           -264.3576   ZZ=           -288.9335
   XY=             -0.2364   XZ=             -2.3143   YZ=              0.1506

 Summary of Natural Population Analysis:

                                       Natural Population
                Natural  -----------------------------------------------
    Atom  No    Charge         Core      Valence    Rydberg      Total
 -----------------------------------------------------------------------
      C    1   -1.02962      1.99944     5.01234    0.01784     7.02962
      H    2    0.25222      0.00000     0.74491    0.00287     0.74778
      H    3    0.25903      0.00000     0.73789    0.00308     0.74097
     Rh    4   -0.24907     35.98472     9.23764    0.02671    45.24907
      C    5   -0.17513      1.99909     4.15613    0.01992     6.17513
      C    6   -0.16840      1.99909     4.15026    0.01905     6.16840
      C    7   -0.17500      1.99907     4.15661    0.01932     6.17500
      C    8   -0.16956      1.99909     4.15128    0.01919     6.16956
      C    9   -0.42414      1.99935     4.41216    0.01262     6.42414
      H   10    0.23061      0.00000     0.76663    0.00277     0.76939
      H   11    0.22660      0.00000     0.77098    0.00241     0.77340
      C   12   -0.41682      1.99935     4.40476    0.01272     6.41682
      C   13   -0.42251      1.99936     4.41113    0.01202     6.42251
      H   14    0.22876      0.00000     0.76879    0.00246     0.77124
      C   15   -0.41581      1.99935     4.40383    0.01264     6.41581
      H   16    0.22226      0.00000     0.77529    0.00245     0.77774
      H   17    0.22772      0.00000     0.77079    0.00149     0.77228
      H   18    0.21509      0.00000     0.78298    0.00193     0.78491
      H   19    0.23206      0.00000     0.76603    0.00191     0.76794
      H   20    0.21508      0.00000     0.78321    0.00172     0.78492
      H   21    0.21534      0.00000     0.78270    0.00196     0.78466
      H   22    0.22743      0.00000     0.77105    0.00152     0.77257
      H   23    0.21636      0.00000     0.78199    0.00165     0.78364
      H   24    0.23209      0.00000     0.76601    0.00190     0.76791
      C   25   -0.48199      1.99938     4.46561    0.01700     6.48199
      C   26   -1.15746      1.99936     5.13931    0.01879     7.15746
      C   27   -0.39134      1.99939     4.38011    0.01185     6.39134
      H   28    0.24254      0.00000     0.75536    0.00211     0.75746
      C   29   -0.27185      1.99939     4.25587    0.01660     6.27185
      H   30    0.23075      0.00000     0.76757    0.00168     0.76925
      H   31    0.21073      0.00000     0.78696    0.00231     0.78927
      H   32    0.23160      0.00000     0.76592    0.00248     0.76840
      C   33   -0.47748      1.99939     4.46127    0.01682     6.47748
      C   34   -1.15805      1.99936     5.14052    0.01816     7.15805
      C   35   -0.39359      1.99938     4.38227    0.01194     6.39359
      H   36    0.23805      0.00000     0.75950    0.00245     0.76195
      C   37   -0.26782      1.99939     4.25131    0.01713     6.26782
      H   38    0.23210      0.00000     0.76619    0.00171     0.76790
      H   39    0.20949      0.00000     0.78828    0.00223     0.79051
      H   40    0.22900      0.00000     0.76862    0.00238     0.77100
      P   41    1.02495      9.99716     3.92955    0.04834    13.97505
      P   42    1.01291      9.99722     3.94213    0.04773    13.98709
      C   43   -0.16515      1.99908     4.15058    0.01549     6.16515
      H   44    0.22529      0.00000     0.77303    0.00168     0.77471
      C   45   -0.21365      1.99907     4.19876    0.01582     6.21365
      H   46    0.22433      0.00000     0.77408    0.00159     0.77567
      C   47   -0.21058      1.99907     4.19588    0.01564     6.21058
      H   48    0.22497      0.00000     0.77346    0.00157     0.77503
      C   49   -0.17179      1.99909     4.15695    0.01574     6.17179
      H   50    0.22504      0.00000     0.77316    0.00181     0.77496
     Si   51    1.72111      9.99792     2.25283    0.02815    12.27889
     Si   52    1.72956      9.99797     2.24347    0.02901    12.27044
     Si   53    1.72422      9.99800     2.24904    0.02874    12.27578
     Si   54    1.71325      9.99786     2.26067    0.02822    12.28675
      C   55   -1.09997      1.99943     5.09111    0.00942     7.09997
      H   56    0.23499      0.00000     0.76374    0.00127     0.76501
      H   57    0.23729      0.00000     0.76163    0.00108     0.76271
      H   58    0.22997      0.00000     0.76854    0.00150     0.77003
      C   59   -1.10170      1.99944     5.09331    0.00896     7.10170
      H   60    0.24152      0.00000     0.75745    0.00104     0.75848
      H   61    0.23042      0.00000     0.76835    0.00122     0.76958
      H   62    0.23265      0.00000     0.76628    0.00107     0.76735
      C   63   -1.10044      1.99943     5.09156    0.00945     7.10044
      H   64    0.23726      0.00000     0.76164    0.00110     0.76274
      H   65    0.23413      0.00000     0.76473    0.00114     0.76587
      H   66    0.22764      0.00000     0.77093    0.00144     0.77236
      C   67   -1.11095      1.99943     5.10218    0.00934     7.11095
      H   68    0.24180      0.00000     0.75715    0.00105     0.75820
      H   69    0.23520      0.00000     0.76350    0.00130     0.76480
      H   70    0.22119      0.00000     0.77756    0.00125     0.77881
      C   71   -1.10439      1.99943     5.09528    0.00969     7.10439
      H   72    0.23815      0.00000     0.76061    0.00124     0.76185
      H   73    0.24160      0.00000     0.75742    0.00098     0.75840
      H   74    0.23048      0.00000     0.76839    0.00113     0.76952
      C   75   -1.10466      1.99943     5.09540    0.00984     7.10466
      H   76    0.23317      0.00000     0.76565    0.00118     0.76683
      H   77    0.24261      0.00000     0.75630    0.00109     0.75739
      H   78    0.21673      0.00000     0.78179    0.00148     0.78327
      C   79   -1.10782      1.99943     5.09872    0.00967     7.10782
      H   80    0.23636      0.00000     0.76257    0.00107     0.76364
      H   81    0.24257      0.00000     0.75636    0.00106     0.75743
      H   82    0.21740      0.00000     0.78115    0.00145     0.78260
      C   83   -1.11635      1.99943     5.10696    0.00995     7.11635
      H   84    0.22644      0.00000     0.77227    0.00130     0.77356
      H   85    0.23022      0.00000     0.76858    0.00120     0.76978
      H   86    0.24578      0.00000     0.75309    0.00113     0.75422
      C   87   -1.10495      1.99944     5.09651    0.00900     7.10495
      H   88    0.24082      0.00000     0.75809    0.00109     0.75918
      H   89    0.23582      0.00000     0.76304    0.00114     0.76418
      H   90    0.23118      0.00000     0.76757    0.00125     0.76882
      C   91   -1.09931      1.99943     5.09052    0.00936     7.09931
      H   92    0.23921      0.00000     0.75981    0.00098     0.76079
      H   93    0.23596      0.00000     0.76283    0.00121     0.76404
      H   94    0.22821      0.00000     0.77068    0.00111     0.77179
      C   95   -1.10648      1.99943     5.09799    0.00905     7.10648
      H   96    0.23269      0.00000     0.76599    0.00133     0.76731
      H   97    0.24086      0.00000     0.75815    0.00099     0.75914
      H   98    0.22670      0.00000     0.77206    0.00124     0.77330
      C   99   -1.09403      1.99942     5.08494    0.00967     7.09403
      H  100    0.23581      0.00000     0.76305    0.00114     0.76419
      H  101    0.23375      0.00000     0.76504    0.00120     0.76625
      H  102    0.22077      0.00000     0.77770    0.00153     0.77923
 =======================================================================
   * Total *    1.00000    161.94854   227.26780    0.78366   390.00000

 Normal termination of Gaussian 16 at Tue Jan 21 18:02:22 2025.
