 Gaussian 16, Revision B.01,
 Gaussian 16:  ES64L-G16RevB.01 20-Dec-2017

 ------------------------------------------
 # nmr=giao b3lyp/genecp pop=nbo scfcyc=200
 ------------------------------------------

 ---------
 MS-16_SPE
 ---------
 Symbolic Z-matrix:
 Charge =  1 Multiplicity = 1

                         Standard orientation:
 ---------------------------------------------------------------------
 Center     Atomic      Atomic             Coordinates (Angstroms)
 Number     Number       Type             X           Y           Z
 ---------------------------------------------------------------------
      1          8           0        0.302300   -3.300761   -2.706891
      2         15           0       -1.387360   -0.371891   -0.071471
      3         15           0        1.402640   -0.209381   -0.044871
      4          6           0       -2.687750   -0.450081   -1.376411
      5          6           0       -2.498030   -1.063561   -2.616661
      6          1           0       -1.578530   -1.581951   -2.853991
      7          6           0       -3.511670   -1.035151   -3.571851
      8          1           0       -3.355490   -1.521421   -4.526551
      9          6           0       -4.714150   -0.393241   -3.303241
     10          1           0       -5.498560   -0.373551   -4.049161
     11          6           0       -4.909540    0.220109   -2.068281
     12          1           0       -5.846260    0.717139   -1.849261
     13          6           0       -3.903420    0.195079   -1.111791
     14          1           0       -4.077240    0.663819   -0.150181
     15          6           0       -2.163210   -1.195451    1.382859
     16          6           0       -3.039070   -2.276371    1.222729
     17          1           0       -3.305470   -2.621771    0.231639
     18          6           0       -3.597480   -2.894971    2.335049
     19          1           0       -4.277170   -3.727271    2.201609
     20          6           0       -3.293240   -2.440141    3.615269
     21          1           0       -3.734560   -2.920331    4.479519
     22          6           0       -2.432640   -1.360671    3.781679
     23          1           0       -2.204300   -0.996401    4.775449
     24          6           0       -1.872350   -0.738841    2.670669
     25          1           0       -1.213290    0.109829    2.801099
     26          6           0        0.078310   -1.420841   -0.638481
     27          1           0        0.080160   -1.288061   -1.723331
     28          6           0        0.154540   -2.916671   -0.344581
     29          1           0        0.948760   -3.152741    0.368649
     30          1           0       -0.758100   -3.268011    0.147899
     31          6           0        0.344740   -3.779221   -1.593301
     32          6           0        0.587440   -5.248261   -1.360281
     33          1           0        0.468050   -5.799651   -2.290291
     34          1           0       -0.081500   -5.647571   -0.595111
     35          1           0        1.609770   -5.389251   -0.995821
     36          6           0        2.755180   -0.156841   -1.297711
     37          6           0        2.640620   -0.709311   -2.575281
     38          1           0        1.763270   -1.269251   -2.869581
     39          6           0        3.679860   -0.569661   -3.492191
     40          1           0        3.583130   -1.011931   -4.475721
     41          6           0        4.832690    0.125819   -3.149091
     42          1           0        5.637380    0.231939   -3.865541
     43          6           0        4.952090    0.681069   -1.877641
     44          1           0        5.849640    1.219699   -1.600651
     45          6           0        3.920630    0.543839   -0.958121
     46          1           0        4.035390    0.968919    0.032119
     47          6           0        2.214250   -0.910281    1.452979
     48          6           0        3.142840   -1.954031    1.352539
     49          1           0        3.423860   -2.343921    0.382059
     50          6           0        3.737010   -2.474591    2.495699
     51          1           0        4.456780   -3.278861    2.408489
     52          6           0        3.417690   -1.956261    3.748159
     53          1           0        3.887110   -2.359741    4.636489
     54          6           0        2.507480   -0.910811    3.854849
     55          1           0        2.269280   -0.495201    4.825929
     56          6           0        1.909760   -0.388291    2.712259
     57          1           0        1.213540    0.436979    2.793569
     58         45           0       -0.106290    1.580319    0.213879
     59          6           0        1.228930    3.300699    0.904789
     60          6           0        1.260080    3.238059   -0.472401
     61          6           0       -1.656740    3.182079   -0.295941
     62          6           0       -1.674090    2.962579    1.064699
     63          6           0        0.425920    4.293009    1.725959
     64          1           0        2.030270    2.797499    1.435769
     65          1           0        2.095130    2.716169   -0.927101
     66          6           0        0.454890    4.072559   -1.437281
     67          6           0       -0.994460    4.356839   -0.990151
     68          1           0       -2.375120    2.633409   -0.894521
     69          6           0       -0.979850    3.787919    2.120749
     70          1           0       -2.434750    2.290849    1.450519
     71          1           0        0.980260    4.515089    2.639349
     72          1           0        0.350890    5.236759    1.186339
     73          1           0        0.976720    5.018839   -1.627901
     74          1           0        0.437120    3.544989   -2.393171
     75          1           0       -1.028960    5.232509   -0.342411
     76          1           0       -1.583450    4.612119   -1.872561
     77          1           0       -0.898970    3.174889    3.021369
     78          1           0       -1.612890    4.639639    2.399289
 ---------------------------------------------------------------------

 SCF Done:  E(RB3LYP) =  -2263.63175333     A.U. after   16 cycles

      1  O    Isotropic =  -302.6305   Anisotropy =   973.3036

      2  P    Isotropic =   291.9166   Anisotropy =    58.1177

      3  P    Isotropic =   287.8306   Anisotropy =    57.3626

      4  C    Isotropic =    45.4613   Anisotropy =   167.8194

      5  C    Isotropic =    48.9852   Anisotropy =   190.8574

      6  H    Isotropic =    23.3649   Anisotropy =    10.9379

      7  C    Isotropic =    48.3405   Anisotropy =   190.5659

      8  H    Isotropic =    23.9540   Anisotropy =     6.6611

      9  C    Isotropic =    46.3529   Anisotropy =   195.6392

     10  H    Isotropic =    24.0635   Anisotropy =     3.6492

     11  C    Isotropic =    48.2100   Anisotropy =   190.7832

     12  H    Isotropic =    24.2733   Anisotropy =     6.7372

     13  C    Isotropic =    47.6294   Anisotropy =   185.6122

     14  H    Isotropic =    25.0007   Anisotropy =    11.3215

     15  C    Isotropic =    45.4662   Anisotropy =   171.9975

     16  C    Isotropic =    44.0176   Anisotropy =   191.6975

     17  H    Isotropic =    25.0726   Anisotropy =    11.5062

     18  C    Isotropic =    49.2032   Anisotropy =   188.7780

     19  H    Isotropic =    24.4147   Anisotropy =     6.2754

     20  C    Isotropic =    45.1941   Anisotropy =   197.9913

     21  H    Isotropic =    24.1132   Anisotropy =     4.0551

     22  C    Isotropic =    49.5273   Anisotropy =   187.3923

     23  H    Isotropic =    24.1376   Anisotropy =     7.1996

     24  C    Isotropic =    41.7098   Anisotropy =   179.6904

     25  H    Isotropic =    23.3081   Anisotropy =     9.6164

     26  C    Isotropic =   133.7907   Anisotropy =    55.8090

     27  H    Isotropic =    25.5514   Anisotropy =     7.5820

     28  C    Isotropic =   140.0051   Anisotropy =    61.2909

     29  H    Isotropic =    29.4303   Anisotropy =     6.0300

     30  H    Isotropic =    29.6955   Anisotropy =     6.0072

     31  C    Isotropic =   -30.3532   Anisotropy =   195.0774

     32  C    Isotropic =   155.0560   Anisotropy =    59.1042

     33  H    Isotropic =    29.7411   Anisotropy =     9.5000

     34  H    Isotropic =    29.9218   Anisotropy =     5.6275

     35  H    Isotropic =    30.0079   Anisotropy =     5.8541

     36  C    Isotropic =    45.0046   Anisotropy =   168.2247

     37  C    Isotropic =    48.4467   Anisotropy =   191.7735

     38  H    Isotropic =    23.4212   Anisotropy =    10.6539

     39  C    Isotropic =    48.6145   Anisotropy =   190.2302

     40  H    Isotropic =    23.9789   Anisotropy =     6.6922

     41  C    Isotropic =    46.5585   Anisotropy =   195.7936

     42  H    Isotropic =    24.0824   Anisotropy =     3.6154

     43  C    Isotropic =    48.3465   Anisotropy =   190.6897

     44  H    Isotropic =    24.2973   Anisotropy =     6.6723

     45  C    Isotropic =    47.7663   Anisotropy =   187.0155

     46  H    Isotropic =    25.0604   Anisotropy =    11.4850

     47  C    Isotropic =    46.0997   Anisotropy =   172.8785

     48  C    Isotropic =    43.8905   Anisotropy =   191.0369

     49  H    Isotropic =    25.0459   Anisotropy =    11.1107

     50  C    Isotropic =    49.2763   Anisotropy =   188.5284

     51  H    Isotropic =    24.3807   Anisotropy =     6.2086

     52  C    Isotropic =    44.9772   Anisotropy =   198.4075

     53  H    Isotropic =    24.0627   Anisotropy =     3.9878

     54  C    Isotropic =    49.4348   Anisotropy =   187.3254

     55  H    Isotropic =    24.0462   Anisotropy =     7.1015

     56  C    Isotropic =    40.4657   Anisotropy =   179.2297

     57  H    Isotropic =    23.0706   Anisotropy =    10.0364

     58  Rh   Isotropic =  -296.7209   Anisotropy =   333.7176

     59  C    Isotropic =    80.8197   Anisotropy =   118.8469

     60  C    Isotropic =    70.3017   Anisotropy =   127.5703

     61  C    Isotropic =    72.9802   Anisotropy =   130.9867

     62  C    Isotropic =    78.7630   Anisotropy =   114.3616

     63  C    Isotropic =   153.8779   Anisotropy =    25.3645

     64  H    Isotropic =    26.7811   Anisotropy =     6.6232

     65  H    Isotropic =    26.8103   Anisotropy =     5.3395

     66  C    Isotropic =   148.2466   Anisotropy =    29.1674

     67  C    Isotropic =   154.0322   Anisotropy =    24.9886

     68  H    Isotropic =    27.1081   Anisotropy =     6.5296

     69  C    Isotropic =   147.7079   Anisotropy =    29.2743

     70  H    Isotropic =    26.1982   Anisotropy =     4.2822

     71  H    Isotropic =    29.7031   Anisotropy =    11.6378

     72  H    Isotropic =    29.6944   Anisotropy =     9.6840

     73  H    Isotropic =    29.4142   Anisotropy =    12.5162

     74  H    Isotropic =    29.5035   Anisotropy =     6.6948

     75  H    Isotropic =    29.8669   Anisotropy =     9.6127

     76  H    Isotropic =    30.0922   Anisotropy =    11.1010

     77  H    Isotropic =    28.8591   Anisotropy =     8.1211

     78  H    Isotropic =    28.9711   Anisotropy =    12.7332

 The electronic state is 1-A.
 Alpha  occ. eigenvalues --  -77.23770 -77.23736 -19.22207 -10.36844 -10.31059
 Alpha  occ. eigenvalues --  -10.29741 -10.29682 -10.29434 -10.29426 -10.29364
 Alpha  occ. eigenvalues --  -10.28965 -10.28881 -10.28792 -10.28729 -10.28612
 Alpha  occ. eigenvalues --  -10.28597 -10.28530 -10.28494 -10.28077 -10.28043
 Alpha  occ. eigenvalues --  -10.27951 -10.27866 -10.27864 -10.27846 -10.27840
 Alpha  occ. eigenvalues --  -10.27805 -10.27789 -10.27754 -10.27560 -10.27314
 Alpha  occ. eigenvalues --  -10.27289 -10.27255 -10.27241 -10.27186 -10.27165
 Alpha  occ. eigenvalues --  -10.27128 -10.27106 -10.27077 -10.26849  -6.69724
 Alpha  occ. eigenvalues --   -6.69694  -4.86005  -4.85976  -4.85947  -4.85916
 Alpha  occ. eigenvalues --   -4.85629  -4.85601  -3.31442  -2.08346  -2.07684
 Alpha  occ. eigenvalues --   -2.04897  -1.15423  -0.96992  -0.96764  -0.95999
 Alpha  occ. eigenvalues --   -0.95959  -0.94320  -0.91644  -0.89053  -0.87880
 Alpha  occ. eigenvalues --   -0.87370  -0.87334  -0.85613  -0.85476  -0.85202
 Alpha  occ. eigenvalues --   -0.84967  -0.84854  -0.84838  -0.84274  -0.80265
 Alpha  occ. eigenvalues --   -0.79430  -0.77695  -0.75686  -0.72765  -0.71503
 Alpha  occ. eigenvalues --   -0.71318  -0.70824  -0.70423  -0.70391  -0.70317
 Alpha  occ. eigenvalues --   -0.70221  -0.67082  -0.66250  -0.65723  -0.64023
 Alpha  occ. eigenvalues --   -0.62574  -0.62344  -0.62144  -0.61651  -0.60367
 Alpha  occ. eigenvalues --   -0.59875  -0.57824  -0.57683  -0.56934  -0.56903
 Alpha  occ. eigenvalues --   -0.56373  -0.56203  -0.56099  -0.55840  -0.55655
 Alpha  occ. eigenvalues --   -0.55483  -0.55407  -0.54488  -0.54283  -0.53509
 Alpha  occ. eigenvalues --   -0.53205  -0.52963  -0.52760  -0.52611  -0.52431
 Alpha  occ. eigenvalues --   -0.52330  -0.52168  -0.51803  -0.51716  -0.51271
 Alpha  occ. eigenvalues --   -0.49145  -0.48800  -0.48590  -0.48065  -0.48018
 Alpha  occ. eigenvalues --   -0.47989  -0.47438  -0.47285  -0.47059  -0.46302
 Alpha  occ. eigenvalues --   -0.45916  -0.45847  -0.45604  -0.45486  -0.45140
 Alpha  occ. eigenvalues --   -0.44688  -0.44558  -0.43671  -0.43591  -0.43245
 Alpha  occ. eigenvalues --   -0.42965  -0.42588  -0.42463  -0.41329  -0.38076
 Alpha  occ. eigenvalues --   -0.37466  -0.37148  -0.36640  -0.36553  -0.36104
 Alpha  occ. eigenvalues --   -0.36034  -0.35697  -0.35580  -0.35382  -0.34714
 Alpha  occ. eigenvalues --   -0.34453  -0.34294  -0.33723  -0.30619
 Alpha virt. eigenvalues --   -0.16341  -0.14737  -0.14016  -0.13302  -0.12773
 Alpha virt. eigenvalues --   -0.12575  -0.12014  -0.11656  -0.11053  -0.10742
 Alpha virt. eigenvalues --   -0.10461  -0.09184  -0.07657  -0.06838  -0.06409

 Mulliken charges:
               1
     1  O   -0.295393
     2  P    0.367268
     3  P    0.393321
     4  C   -0.154075
     5  C   -0.035605
     6  H    0.164921
     7  C   -0.134641
     8  H    0.134765
     9  C   -0.085148
    10  H    0.138363
    11  C   -0.092147
    12  H    0.132716
    13  C   -0.115997
    14  H    0.156299
    15  C   -0.260057
    16  C   -0.063061
    17  H    0.165938
    18  C   -0.091370
    19  H    0.136420
    20  C   -0.087667
    21  H    0.140337
    22  C   -0.118199
    23  H    0.128745
    24  C   -0.009289
    25  H    0.142015
    26  C   -0.547370
    27  H    0.210167
    28  C   -0.204828
    29  H    0.194651
    30  H    0.200348
    31  C    0.225865
    32  C   -0.417693
    33  H    0.174173
    34  H    0.144952
    35  H    0.158847
    36  C   -0.156279
    37  C   -0.050515
    38  H    0.159413
    39  C   -0.135346
    40  H    0.135092
    41  C   -0.089469
    42  H    0.138374
    43  C   -0.087575
    44  H    0.133196
    45  C   -0.097493
    46  H    0.154953
    47  C   -0.283323
    48  C   -0.060914
    49  H    0.163688
    50  C   -0.088967
    51  H    0.136054
    52  C   -0.085864
    53  H    0.140393
    54  C   -0.120414
    55  H    0.129204
    56  C   -0.027585
    57  H    0.168342
    58  Rh  -0.660802
    59  C   -0.024263
    60  C   -0.106958
    61  C   -0.031338
    62  C   -0.095449
    63  C   -0.350319
    64  H    0.184014
    65  H    0.223605
    66  C   -0.224416
    67  C   -0.349633
    68  H    0.214463
    69  C   -0.227910
    70  H    0.190036
    71  H    0.168411
    72  H    0.169458
    73  H    0.170824
    74  H    0.137837
    75  H    0.166254
    76  H    0.170297
    77  H    0.130819
    78  H    0.172531
 Sum of Mulliken charges =   1.00000

 Dipole moment (field-independent basis, Debye):
    X=              0.0882    Y=             -0.6989    Z=              2.3311  Tot=              2.4353
 Quadrupole moment (field-independent basis, Debye-Ang):
   XX=           -208.3974   YY=           -210.9216   ZZ=           -223.8970
   XY=             -0.7828   XZ=              1.1476   YZ=             -4.4923

 Summary of Natural Population Analysis:

                                       Natural Population
                Natural  -----------------------------------------------
    Atom  No    Charge         Core      Valence    Rydberg      Total
 -----------------------------------------------------------------------
      O    1   -0.54112      1.99976     6.52900    0.01237     8.54112
      P    2    1.13609      9.99637     3.81608    0.05146    13.86391
      P    3    1.13480      9.99637     3.81738    0.05146    13.86520
      C    4   -0.34026      1.99899     4.31808    0.02319     6.34026
      C    5   -0.20285      1.99909     4.18833    0.01544     6.20285
      H    6    0.22656      0.00000     0.77133    0.00211     0.77344
      C    7   -0.18694      1.99920     4.17316    0.01458     6.18694
      H    8    0.22344      0.00000     0.77535    0.00121     0.77656
      C    9   -0.18151      1.99920     4.16771    0.01460     6.18151
      H   10    0.22291      0.00000     0.77592    0.00117     0.77709
      C   11   -0.19090      1.99919     4.17708    0.01463     6.19090
      H   12    0.22234      0.00000     0.77643    0.00123     0.77766
      C   13   -0.20125      1.99909     4.18679    0.01537     6.20125
      H   14    0.21474      0.00000     0.78346    0.00180     0.78526
      C   15   -0.35009      1.99899     4.32718    0.02393     6.35009
      C   16   -0.19594      1.99910     4.18094    0.01591     6.19594
      H   17    0.22201      0.00000     0.77610    0.00189     0.77799
      C   18   -0.19320      1.99920     4.17937    0.01463     6.19320
      H   19    0.22345      0.00000     0.77533    0.00122     0.77655
      C   20   -0.17419      1.99921     4.16048    0.01450     6.17419
      H   21    0.22325      0.00000     0.77557    0.00117     0.77675
      C   22   -0.19553      1.99919     4.18183    0.01450     6.19553
      H   23    0.22059      0.00000     0.77816    0.00124     0.77941
      C   24   -0.18357      1.99909     4.16892    0.01555     6.18357
      H   25    0.21744      0.00000     0.78032    0.00223     0.78256
      C   26   -0.76679      1.99938     4.74143    0.02597     6.76679
      H   27    0.28170      0.00000     0.71450    0.00380     0.71830
      C   28   -0.53385      1.99925     4.52020    0.01440     6.53385
      H   29    0.24564      0.00000     0.75179    0.00257     0.75436
      H   30    0.24985      0.00000     0.74757    0.00258     0.75015
      C   31    0.59117      1.99948     3.37538    0.03397     5.40883
      C   32   -0.69976      1.99937     4.69333    0.00706     6.69976
      H   33    0.24416      0.00000     0.75447    0.00137     0.75584
      H   34    0.22923      0.00000     0.76973    0.00104     0.77077
      H   35    0.23967      0.00000     0.75921    0.00111     0.76033
      C   36   -0.34206      1.99899     4.32008    0.02299     6.34206
      C   37   -0.20187      1.99909     4.18731    0.01548     6.20187
      H   38    0.22710      0.00000     0.77080    0.00210     0.77290
      C   39   -0.18709      1.99920     4.17330    0.01459     6.18709
      H   40    0.22347      0.00000     0.77532    0.00121     0.77653
      C   41   -0.18162      1.99920     4.16780    0.01462     6.18162
      H   42    0.22286      0.00000     0.77597    0.00117     0.77714
      C   43   -0.19102      1.99919     4.17713    0.01469     6.19102
      H   44    0.22240      0.00000     0.77638    0.00123     0.77760
      C   45   -0.20269      1.99909     4.18834    0.01526     6.20269
      H   46    0.21636      0.00000     0.78187    0.00177     0.78364
      C   47   -0.34998      1.99899     4.32689    0.02411     6.34998
      C   48   -0.19523      1.99910     4.18021    0.01593     6.19523
      H   49    0.21992      0.00000     0.77817    0.00191     0.78008
      C   50   -0.19365      1.99920     4.17985    0.01461     6.19365
      H   51    0.22326      0.00000     0.77551    0.00123     0.77674
      C   52   -0.17352      1.99921     4.15982    0.01450     6.17352
      H   53    0.22340      0.00000     0.77543    0.00117     0.77660
      C   54   -0.19632      1.99919     4.18262    0.01450     6.19632
      H   55    0.22068      0.00000     0.77808    0.00124     0.77932
      C   56   -0.18241      1.99909     4.16775    0.01557     6.18241
      H   57    0.21880      0.00000     0.77917    0.00203     0.78120
     Rh   58   -0.40191     35.98568     9.38805    0.02818    45.40191
      C   59   -0.18247      1.99907     4.16404    0.01936     6.18247
      C   60   -0.15258      1.99909     4.13332    0.02017     6.15258
      C   61   -0.16237      1.99906     4.14400    0.01932     6.16237
      C   62   -0.17035      1.99907     4.15129    0.01998     6.17035
      C   63   -0.42301      1.99936     4.41185    0.01180     6.42301
      H   64    0.22500      0.00000     0.77312    0.00189     0.77500
      H   65    0.23255      0.00000     0.76510    0.00235     0.76745
      C   66   -0.41936      1.99935     4.40707    0.01295     6.41936
      C   67   -0.42376      1.99936     4.41259    0.01181     6.42376
      H   68    0.23147      0.00000     0.76622    0.00230     0.76853
      C   69   -0.41756      1.99935     4.40550    0.01271     6.41756
      H   70    0.22550      0.00000     0.77261    0.00189     0.77450
      H   71    0.22768      0.00000     0.77084    0.00148     0.77232
      H   72    0.21546      0.00000     0.78258    0.00196     0.78454
      H   73    0.23375      0.00000     0.76439    0.00187     0.76625
      H   74    0.22036      0.00000     0.77818    0.00146     0.77964
      H   75    0.21362      0.00000     0.78440    0.00199     0.78638
      H   76    0.22988      0.00000     0.76863    0.00149     0.77012
      H   77    0.21220      0.00000     0.78624    0.00156     0.78780
      H   78    0.23383      0.00000     0.76425    0.00192     0.76617
 =======================================================================
   * Total *    1.00000    129.94845   205.23995    0.81160   336.00000

 Normal termination of Gaussian 16 at Wed Jan 22 03:35:23 2025.
