 Gaussian 16, Revision B.01,
 Gaussian 16:  ES64L-G16RevB.01 20-Dec-2017

 ------------------------------------------
 # nmr=giao b3lyp/genecp pop=nbo scfcyc=200
 ------------------------------------------

 ---------
 MS-13_SPE
 ---------
 Symbolic Z-matrix:
 Charge =  1 Multiplicity = 1

                         Standard orientation:
 ---------------------------------------------------------------------
 Center     Atomic      Atomic             Coordinates (Angstroms)
 Number     Number       Type             X           Y           Z
 ---------------------------------------------------------------------
      1          6           0        0.109919    0.512680   -1.834721
      2          1           0        0.137559   -0.428580   -2.387991
      3          6           0        0.106689    1.678320   -2.815551
      4          1           0        0.093369    2.643540   -2.310751
      5          1           0       -0.760811    1.626490   -3.476631
      6          1           0        0.996439    1.647371   -3.448351
      7          6           0        2.948139   -0.469249   -1.414941
      8          6           0        4.214269   -0.334359   -0.832391
      9          1           0        4.349989    0.288371    0.043039
     10          6           0        5.314660   -0.981159   -1.382531
     11          1           0        6.288890   -0.863149   -0.925001
     12          6           0        5.166640   -1.772089   -2.517621
     13          1           0        6.025120   -2.272169   -2.947571
     14          6           0        3.911510   -1.916469   -3.098451
     15          1           0        3.789050   -2.528409   -3.983271
     16          6           0        2.806580   -1.275399   -2.547711
     17          1           0        1.841000   -1.411879   -3.016841
     18          6           0        2.081289    1.986421   -0.093751
     19          6           0        2.166099    3.755791    1.556419
     20          1           0        1.912749    4.129121    2.540749
     21          6           0        2.909199    4.540591    0.681929
     22          1           0        3.234309    5.528721    0.982319
     23          6           0        3.243689    4.051171   -0.578411
     24          1           0        3.827639    4.658081   -1.258901
     25          6           0        2.835179    2.781131   -0.966031
     26          1           0        3.117989    2.406781   -1.941501
     27          6           0       -2.704391   -0.570370   -1.545921
     28          1           0       -2.995741    0.170720   -2.297701
     29          6           0       -2.274410   -1.854290   -2.278961
     30          1           0       -1.892580   -2.580620   -1.554041
     31          1           0       -1.457700   -1.648060   -2.974451
     32          6           0       -3.444140   -2.475310   -3.056851
     33          1           0       -3.733750   -1.799910   -3.869451
     34          1           0       -3.111520   -3.402840   -3.529041
     35          6           0       -4.654840   -2.735570   -2.157901
     36          1           0       -4.404060   -3.508720   -1.422461
     37          1           0       -5.484520   -3.129170   -2.749171
     38          6           0       -5.083040   -1.460170   -1.429301
     39          1           0       -5.912720   -1.667520   -0.749351
     40          1           0       -5.453251   -0.730500   -2.157951
     41          6           0       -3.921890   -0.839900   -0.639311
     42          1           0       -4.258261    0.080820   -0.160801
     43          1           0       -3.635350   -1.522260    0.167339
     44          6           0       -1.852441    1.936420   -0.044461
     45          1           0       -0.914851    2.502910   -0.040911
     46          6           0       -2.826571    2.644380   -1.005251
     47          1           0       -3.769331    2.092120   -1.051221
     48          1           0       -2.426521    2.668080   -2.020191
     49          6           0       -3.118511    4.076520   -0.531681
     50          1           0       -2.200081    4.671240   -0.590441
     51          1           0       -3.834521    4.543460   -1.212281
     52          6           0       -3.651221    4.100390    0.903249
     53          1           0       -4.632591    3.613480    0.934239
     54          1           0       -3.807361    5.131030    1.229769
     55          6           0       -2.696761    3.382310    1.861209
     56          1           0       -3.115901    3.358350    2.870169
     57          1           0       -1.758481    3.944880    1.926429
     58          6           0       -2.391261    1.950820    1.399179
     59          1           0       -3.304771    1.350930    1.463009
     60          1           0       -1.664541    1.486730    2.069779
     61          6           0        1.754439    2.483411    1.171129
     62          1           0        1.179889    1.869931    1.854399
     63         15           0        1.498899    0.307651   -0.579611
     64         15           0       -1.286431    0.217800   -0.586741
     65         45           0        0.183740   -0.910890    0.931189
     66          6           0       -1.167270   -1.716060    2.599189
     67          6           0       -1.114180   -2.645390    1.584199
     68          6           0        1.774410   -2.312839    1.740129
     69          6           0        1.702640   -1.196949    2.551569
     70          6           0       -0.399160   -1.795490    3.904729
     71          1           0       -2.002690   -1.024780    2.588229
     72          1           0       -1.929190   -2.643320    0.869949
     73          6           0       -0.242230   -3.875010    1.524229
     74          6           0        1.187870   -3.673219    2.067119
     75          1           0        2.529920   -2.306819    0.962639
     76          6           0        0.970200   -1.081549    3.866049
     77          1           0        2.435529   -0.414539    2.380319
     78          1           0       -1.003570   -1.340310    4.691049
     79          1           0       -0.273560   -2.839460    4.191259
     80          1           0       -0.730640   -4.699320    2.059109
     81          1           0       -0.185540   -4.189950    0.480079
     82          1           0        1.211250   -3.832989    3.145039
     83          1           0        1.832500   -4.440949    1.636219
     84          1           0        0.824009   -0.018949    4.073369
     85          1           0        1.605310   -1.456819    4.678239
 ---------------------------------------------------------------------

 SCF Done:  E(RB3LYP) =  -2118.19648972     A.U. after   16 cycles

      1  C    Isotropic =   132.9059   Anisotropy =    60.8617

      2  H    Isotropic =    27.4935   Anisotropy =     2.3742

      3  C    Isotropic =   170.5463   Anisotropy =    18.6171

      4  H    Isotropic =    30.9561   Anisotropy =     4.0330

      5  H    Isotropic =    30.7406   Anisotropy =     9.9658

      6  H    Isotropic =    30.6683   Anisotropy =    10.2906

      7  C    Isotropic =    46.0543   Anisotropy =   168.7537

      8  C    Isotropic =    47.0119   Anisotropy =   190.0364

      9  H    Isotropic =    25.0095   Anisotropy =    12.1148

     10  C    Isotropic =    48.0412   Anisotropy =   191.4935

     11  H    Isotropic =    24.3105   Anisotropy =     6.6600

     12  C    Isotropic =    46.4079   Anisotropy =   195.9300

     13  H    Isotropic =    24.0889   Anisotropy =     3.5104

     14  C    Isotropic =    48.8777   Anisotropy =   189.6402

     15  H    Isotropic =    24.0670   Anisotropy =     6.6002

     16  C    Isotropic =    51.2972   Anisotropy =   186.2139

     17  H    Isotropic =    24.2034   Anisotropy =    11.6009

     18  C    Isotropic =    47.3022   Anisotropy =   170.4876

     19  C    Isotropic =    49.3269   Anisotropy =   188.1923

     20  H    Isotropic =    23.9763   Anisotropy =     7.0274

     21  C    Isotropic =    44.4591   Anisotropy =   199.0511

     22  H    Isotropic =    23.8890   Anisotropy =     3.9096

     23  C    Isotropic =    48.7698   Anisotropy =   189.6438

     24  H    Isotropic =    24.1737   Anisotropy =     5.8888

     25  C    Isotropic =    43.4820   Anisotropy =   190.8060

     26  H    Isotropic =    24.5624   Anisotropy =    11.1168

     27  C    Isotropic =   143.0475   Anisotropy =    20.7272

     28  H    Isotropic =    29.5150   Anisotropy =     4.1107

     29  C    Isotropic =   152.8503   Anisotropy =    12.0632

     30  H    Isotropic =    30.3701   Anisotropy =     6.5129

     31  H    Isotropic =    29.9922   Anisotropy =     6.5744

     32  C    Isotropic =   154.6291   Anisotropy =     6.9762

     33  H    Isotropic =    30.4174   Anisotropy =     8.9900

     34  H    Isotropic =    29.8717   Anisotropy =    10.4909

     35  C    Isotropic =   155.8258   Anisotropy =     2.9486

     36  H    Isotropic =    30.5629   Anisotropy =     7.6511

     37  H    Isotropic =    30.0226   Anisotropy =    11.9419

     38  C    Isotropic =   155.2445   Anisotropy =     6.0704

     39  H    Isotropic =    30.0628   Anisotropy =    10.6197

     40  H    Isotropic =    30.5204   Anisotropy =     8.7132

     41  C    Isotropic =   152.0399   Anisotropy =    14.9122

     42  H    Isotropic =    30.1567   Anisotropy =     8.1302

     43  H    Isotropic =    30.8325   Anisotropy =     6.1281

     44  C    Isotropic =   138.5066   Anisotropy =    25.6099

     45  H    Isotropic =    30.3422   Anisotropy =     8.3643

     46  C    Isotropic =   151.4623   Anisotropy =    14.6853

     47  H    Isotropic =    30.5190   Anisotropy =     6.3655

     48  H    Isotropic =    30.3547   Anisotropy =     4.9834

     49  C    Isotropic =   154.3887   Anisotropy =     6.7184

     50  H    Isotropic =    30.9404   Anisotropy =     6.7792

     51  H    Isotropic =    30.2322   Anisotropy =    11.3327

     52  C    Isotropic =   156.0769   Anisotropy =     2.5243

     53  H    Isotropic =    30.6829   Anisotropy =     9.1619

     54  H    Isotropic =    30.2393   Anisotropy =    11.7059

     55  C    Isotropic =   153.2421   Anisotropy =     8.6974

     56  H    Isotropic =    30.0249   Anisotropy =     9.9943

     57  H    Isotropic =    30.6476   Anisotropy =     7.1633

     58  C    Isotropic =   147.0171   Anisotropy =    20.5948

     59  H    Isotropic =    30.4545   Anisotropy =     3.9505

     60  H    Isotropic =    29.5196   Anisotropy =     8.4064

     61  C    Isotropic =    40.8683   Anisotropy =   180.7640

     62  H    Isotropic =    23.3590   Anisotropy =     8.9809

     63  P    Isotropic =   289.2895   Anisotropy =    63.9884

     64  P    Isotropic =   286.2002   Anisotropy =    67.3528

     65  Rh   Isotropic =  -302.0831   Anisotropy =   335.0663

     66  C    Isotropic =    79.3994   Anisotropy =   122.7942

     67  C    Isotropic =    75.4044   Anisotropy =   118.8860

     68  C    Isotropic =    78.1605   Anisotropy =   123.7264

     69  C    Isotropic =    81.2457   Anisotropy =   110.6634

     70  C    Isotropic =   154.1109   Anisotropy =    25.3848

     71  H    Isotropic =    26.8264   Anisotropy =     5.5938

     72  H    Isotropic =    25.7761   Anisotropy =     5.2533

     73  C    Isotropic =   147.4580   Anisotropy =    30.3626

     74  C    Isotropic =   154.6561   Anisotropy =    24.3272

     75  H    Isotropic =    27.8590   Anisotropy =     6.6030

     76  C    Isotropic =   147.4750   Anisotropy =    29.6300

     77  H    Isotropic =    26.7129   Anisotropy =     4.3155

     78  H    Isotropic =    29.8263   Anisotropy =    11.3636

     79  H    Isotropic =    29.8007   Anisotropy =     9.7455

     80  H    Isotropic =    29.1527   Anisotropy =    12.5776

     81  H    Isotropic =    29.1998   Anisotropy =     7.0760

     82  H    Isotropic =    29.9304   Anisotropy =     9.7484

     83  H    Isotropic =    30.1587   Anisotropy =    11.1005

     84  H    Isotropic =    29.0529   Anisotropy =     7.7648

     85  H    Isotropic =    29.0926   Anisotropy =    12.8439

 The electronic state is 1-A.
 Alpha  occ. eigenvalues --  -77.23668 -77.22385 -10.30988 -10.29798 -10.29757
 Alpha  occ. eigenvalues --  -10.29377 -10.29166 -10.29020 -10.28822 -10.28741
 Alpha  occ. eigenvalues --  -10.28645 -10.28613 -10.28573 -10.28547 -10.28310
 Alpha  occ. eigenvalues --  -10.27976 -10.27887 -10.27830 -10.27679 -10.27639
 Alpha  occ. eigenvalues --  -10.27612 -10.27523 -10.27464 -10.27415 -10.27229
 Alpha  occ. eigenvalues --  -10.27184 -10.27091 -10.27076 -10.26749 -10.26668
 Alpha  occ. eigenvalues --  -10.25612 -10.25520 -10.25371 -10.25348 -10.25008
 Alpha  occ. eigenvalues --  -10.24812  -6.69653  -6.68400  -4.85920  -4.85886
 Alpha  occ. eigenvalues --   -4.85560  -4.84689  -4.84582  -4.84316  -3.31298
 Alpha  occ. eigenvalues --   -2.08183  -2.07522  -2.04770  -0.97022  -0.96296
 Alpha  occ. eigenvalues --   -0.94358  -0.94021  -0.92861  -0.90448  -0.89034
 Alpha  occ. eigenvalues --   -0.87888  -0.86861  -0.85612  -0.85456  -0.85106
 Alpha  occ. eigenvalues --   -0.85019  -0.84178  -0.83886  -0.83586  -0.80244
 Alpha  occ. eigenvalues --   -0.78608  -0.77697  -0.75155  -0.72193  -0.71447
 Alpha  occ. eigenvalues --   -0.71038  -0.70902  -0.70591  -0.70488  -0.70434
 Alpha  occ. eigenvalues --   -0.70219  -0.66849  -0.65866  -0.65427  -0.65211
 Alpha  occ. eigenvalues --   -0.64075  -0.62586  -0.62239  -0.61203  -0.59960
 Alpha  occ. eigenvalues --   -0.58156  -0.57130  -0.56936  -0.56450  -0.56408
 Alpha  occ. eigenvalues --   -0.56148  -0.55925  -0.55550  -0.55263  -0.54668
 Alpha  occ. eigenvalues --   -0.53844  -0.53796  -0.53542  -0.53495  -0.53354
 Alpha  occ. eigenvalues --   -0.53131  -0.53003  -0.52870  -0.52525  -0.52409
 Alpha  occ. eigenvalues --   -0.52158  -0.51337  -0.50081  -0.49023  -0.48418
 Alpha  occ. eigenvalues --   -0.48361  -0.48097  -0.47954  -0.47880  -0.47582
 Alpha  occ. eigenvalues --   -0.47468  -0.47296  -0.46781  -0.46174  -0.45883
 Alpha  occ. eigenvalues --   -0.45702  -0.45394  -0.45372  -0.45085  -0.44482
 Alpha  occ. eigenvalues --   -0.44340  -0.43892  -0.43709  -0.43216  -0.43026
 Alpha  occ. eigenvalues --   -0.42892  -0.42236  -0.41448  -0.41302  -0.41034
 Alpha  occ. eigenvalues --   -0.40187  -0.39709  -0.39390  -0.38595  -0.37941
 Alpha  occ. eigenvalues --   -0.36743  -0.36428  -0.36185  -0.35929  -0.35014
 Alpha  occ. eigenvalues --   -0.34432  -0.34361  -0.33580  -0.30546
 Alpha virt. eigenvalues --   -0.16027  -0.14541  -0.13698  -0.12342  -0.11599
 Alpha virt. eigenvalues --   -0.11093  -0.09224  -0.08142  -0.07497  -0.06972
 Alpha virt. eigenvalues --   -0.06681  -0.06126  -0.05660  -0.04931  -0.04762

 Mulliken charges:
               1
     1  C   -0.434997
     2  H    0.173168
     3  C   -0.361557
     4  H    0.156881
     5  H    0.153310
     6  H    0.152319
     7  C   -0.120478
     8  C   -0.076538
     9  H    0.153289
    10  C   -0.090012
    11  H    0.136268
    12  C   -0.100045
    13  H    0.139804
    14  C   -0.103938
    15  H    0.132458
    16  C   -0.085676
    17  H    0.118727
    18  C   -0.279572
    19  C   -0.107017
    20  H    0.132171
    21  C   -0.091954
    22  H    0.140328
    23  C   -0.087469
    24  H    0.137707
    25  C   -0.055081
    26  H    0.150963
    27  C   -0.188281
    28  H    0.179678
    29  C   -0.289567
    30  H    0.130761
    31  H    0.127646
    32  C   -0.234427
    33  H    0.122936
    34  H    0.144863
    35  C   -0.227603
    36  H    0.113576
    37  H    0.150939
    38  C   -0.244713
    39  H    0.148301
    40  H    0.122950
    41  C   -0.273459
    42  H    0.143242
    43  H    0.138624
    44  C   -0.206721
    45  H    0.162764
    46  C   -0.255155
    47  H    0.133506
    48  H    0.146485
    49  C   -0.242430
    50  H    0.119960
    51  H    0.147488
    52  C   -0.226017
    53  H    0.115360
    54  H    0.148081
    55  C   -0.244033
    56  H    0.143476
    57  H    0.118932
    58  C   -0.267587
    59  H    0.130750
    60  H    0.135433
    61  C   -0.039293
    62  H    0.169396
    63  P    0.341022
    64  P    0.450794
    65  Rh  -0.560037
    66  C   -0.013310
    67  C   -0.114563
    68  C   -0.027204
    69  C   -0.110004
    70  C   -0.349903
    71  H    0.182936
    72  H    0.174798
    73  C   -0.224043
    74  C   -0.354708
    75  H    0.211107
    76  C   -0.217533
    77  H    0.197297
    78  H    0.168208
    79  H    0.168481
    80  H    0.169804
    81  H    0.132199
    82  H    0.166993
    83  H    0.169585
    84  H    0.127466
    85  H    0.171693
 Sum of Mulliken charges =   1.00000

 Dipole moment (field-independent basis, Debye):
    X=              0.8966    Y=              0.0988    Z=             -0.6555  Tot=              1.1150
 Quadrupole moment (field-independent basis, Debye-Ang):
   XX=           -204.2636   YY=           -212.8814   ZZ=           -220.2356
   XY=              1.8309   XZ=             -1.8481   YZ=              1.7021

 Summary of Natural Population Analysis:

                                       Natural Population
                Natural  -----------------------------------------------
    Atom  No    Charge         Core      Valence    Rydberg      Total
 -----------------------------------------------------------------------
      C    1   -0.74944      1.99941     4.72884    0.02119     6.74944
      H    2    0.24540      0.00000     0.75225    0.00235     0.75460
      C    3   -0.61736      1.99940     4.60678    0.01118     6.61736
      H    4    0.21582      0.00000     0.78216    0.00202     0.78418
      H    5    0.22020      0.00000     0.77813    0.00167     0.77980
      H    6    0.22343      0.00000     0.77481    0.00176     0.77657
      C    7   -0.34086      1.99899     4.31788    0.02398     6.34086
      C    8   -0.19780      1.99910     4.18348    0.01522     6.19780
      H    9    0.21992      0.00000     0.77835    0.00173     0.78008
      C   10   -0.18874      1.99920     4.17487    0.01467     6.18874
      H   11    0.22340      0.00000     0.77538    0.00122     0.77660
      C   12   -0.18136      1.99920     4.16748    0.01468     6.18136
      H   13    0.22371      0.00000     0.77512    0.00117     0.77629
      C   14   -0.18940      1.99920     4.17551    0.01469     6.18940
      H   15    0.22202      0.00000     0.77675    0.00123     0.77798
      C   16   -0.19614      1.99909     4.18163    0.01541     6.19614
      H   17    0.20536      0.00000     0.79276    0.00188     0.79464
      C   18   -0.35476      1.99898     4.33115    0.02462     6.35476
      C   19   -0.19983      1.99919     4.18590    0.01473     6.19983
      H   20    0.22173      0.00000     0.77702    0.00125     0.77827
      C   21   -0.17376      1.99921     4.16001    0.01455     6.17376
      H   22    0.22370      0.00000     0.77513    0.00117     0.77630
      C   23   -0.19345      1.99920     4.17966    0.01459     6.19345
      H   24    0.22420      0.00000     0.77458    0.00123     0.77580
      C   25   -0.18660      1.99909     4.17157    0.01594     6.18660
      H   26    0.21994      0.00000     0.77801    0.00206     0.78006
      C   27   -0.47784      1.99935     4.46058    0.01791     6.47784
      H   28    0.22231      0.00000     0.77390    0.00379     0.77769
      C   29   -0.38647      1.99938     4.37668    0.01041     6.38647
      H   30    0.19872      0.00000     0.79910    0.00219     0.80128
      H   31    0.19725      0.00000     0.80100    0.00176     0.80275
      C   32   -0.38263      1.99942     4.37331    0.00990     6.38263
      H   33    0.19526      0.00000     0.80292    0.00182     0.80474
      H   34    0.21427      0.00000     0.78437    0.00137     0.78573
      C   35   -0.38907      1.99942     4.38019    0.00947     6.38907
      H   36    0.19116      0.00000     0.80703    0.00181     0.80884
      H   37    0.21687      0.00000     0.78180    0.00133     0.78313
      C   38   -0.38379      1.99941     4.37451    0.00987     6.38379
      H   39    0.21553      0.00000     0.78311    0.00137     0.78447
      H   40    0.19541      0.00000     0.80278    0.00181     0.80459
      C   41   -0.39073      1.99937     4.38056    0.01079     6.39073
      H   42    0.20567      0.00000     0.79223    0.00210     0.79433
      H   43    0.19344      0.00000     0.80447    0.00209     0.80656
      C   44   -0.47563      1.99935     4.45724    0.01904     6.47563
      H   45    0.22693      0.00000     0.76951    0.00356     0.77307
      C   46   -0.39644      1.99938     4.38577    0.01130     6.39644
      H   47    0.19482      0.00000     0.80296    0.00222     0.80518
      H   48    0.20489      0.00000     0.79303    0.00208     0.79511
      C   49   -0.38236      1.99942     4.37315    0.00980     6.38236
      H   50    0.19296      0.00000     0.80528    0.00175     0.80704
      H   51    0.21533      0.00000     0.78330    0.00137     0.78467
      C   52   -0.38908      1.99942     4.38011    0.00955     6.38908
      H   53    0.19305      0.00000     0.80519    0.00176     0.80695
      H   54    0.21519      0.00000     0.78345    0.00135     0.78481
      C   55   -0.38358      1.99942     4.37417    0.00999     6.38358
      H   56    0.21333      0.00000     0.78526    0.00141     0.78667
      H   57    0.18990      0.00000     0.80789    0.00222     0.81010
      C   58   -0.38642      1.99938     4.37634    0.01070     6.38642
      H   59    0.19336      0.00000     0.80441    0.00223     0.80664
      H   60    0.21154      0.00000     0.78663    0.00183     0.78846
      C   61   -0.18975      1.99910     4.17478    0.01587     6.18975
      H   62    0.22186      0.00000     0.77568    0.00246     0.77814
      P   63    1.13107      9.99640     3.82200    0.05053    13.86893
      P   64    1.10835      9.99679     3.84777    0.04710    13.89165
     Rh   65   -0.38436     35.98580     9.36949    0.02906    45.38436
      C   66   -0.18244      1.99908     4.16385    0.01951     6.18244
      C   67   -0.15870      1.99908     4.13939    0.02023     6.15870
      C   68   -0.17024      1.99907     4.15212    0.01905     6.17024
      C   69   -0.17116      1.99908     4.15240    0.01968     6.17116
      C   70   -0.42311      1.99936     4.41191    0.01184     6.42311
      H   71    0.22677      0.00000     0.77120    0.00203     0.77323
      H   72    0.21999      0.00000     0.77742    0.00259     0.78001
      C   73   -0.41824      1.99935     4.40623    0.01266     6.41824
      C   74   -0.42200      1.99936     4.41088    0.01176     6.42200
      H   75    0.23036      0.00000     0.76750    0.00214     0.76964
      C   76   -0.41617      1.99935     4.40419    0.01262     6.41617
      H   77    0.22398      0.00000     0.77399    0.00203     0.77602
      H   78    0.22803      0.00000     0.77048    0.00149     0.77197
      H   79    0.21540      0.00000     0.78263    0.00197     0.78460
      H   80    0.23257      0.00000     0.76548    0.00195     0.76743
      H   81    0.21623      0.00000     0.78217    0.00160     0.78377
      H   82    0.21421      0.00000     0.78383    0.00196     0.78579
      H   83    0.22880      0.00000     0.76973    0.00148     0.77120
      H   84    0.21289      0.00000     0.78551    0.00159     0.78711
      H   85    0.23317      0.00000     0.76495    0.00189     0.76683
 =======================================================================
   * Total *    1.00000    123.95378   201.33301    0.71321   326.00000

 Normal termination of Gaussian 16 at Wed Jan 22 03:18:17 2025.
