 Gaussian 16, Revision B.01,
 Gaussian 16:  ES64L-G16RevB.01 20-Dec-2017

 ------------------------------------------
 # nmr=giao b3lyp/genecp pop=nbo scfcyc=200
 ------------------------------------------

 ---------
 MS-14_SPE
 ---------
 Symbolic Z-matrix:
 Charge =  1 Multiplicity = 1

                         Standard orientation:
 ---------------------------------------------------------------------
 Center     Atomic      Atomic             Coordinates (Angstroms)
 Number     Number       Type             X           Y           Z
 ---------------------------------------------------------------------
      1         15           0       -1.429079    0.233673    0.486590
      2         15           0        1.405111    0.294328    0.450380
      3          6           0       -0.001728    0.816511    1.616690
      4          1           0       -0.024669    0.053351    2.398280
      5          6           0        0.004484    2.114641    2.236990
      6          7           0        0.020796    3.160341    2.722460
      7          6           0       -2.274987    1.669965   -0.282950
      8          6           0       -3.560657    1.458647   -0.799940
      9          1           0       -4.060929    0.508058   -0.660150
     10          6           0       -4.218585    2.477338   -1.476760
     11          1           0       -5.215156    2.306530   -1.863900
     12          6           0       -3.602143    3.713437   -1.649340
     13          1           0       -4.118702    4.508958   -2.171170
     14          6           0       -2.324623    3.925185   -1.144660
     15          1           0       -1.842721    4.886604   -1.268060
     16          6           0       -1.656564    2.908364   -0.469600
     17          1           0       -0.665594    3.103172   -0.086650
     18          6           0       -2.634680   -0.493495    1.668500
     19          6           0       -3.542469    0.309837    2.368150
     20          1           0       -3.596797    1.373427    2.175760
     21          6           0       -4.384410   -0.259892    3.315410
     22          1           0       -5.085029    0.365709    3.853760
     23          6           0       -4.326912   -1.626932    3.573660
     24          1           0       -4.987073   -2.065891    4.311000
     25          6           0       -3.421424   -2.428063    2.886250
     26          1           0       -3.374245   -3.491003    3.086580
     27          6           0       -2.576263   -1.864635    1.936010
     28          1           0       -1.867164   -2.488766    1.406280
     29          6           0        2.058214    1.815257   -0.342330
     30          6           0        1.768364    2.066118   -1.686740
     31          1           0        1.163753    1.362909   -2.246170
     32          6           0        2.250696    3.216477   -2.301650
     33          1           0        2.026706    3.404517   -3.344080
     34          6           0        3.022278    4.119716   -1.578350
     35          1           0        3.400319    5.013965   -2.057690
     36          6           0        3.312867    3.874745   -0.238470
     37          1           0        3.911468    4.578474    0.325640
     38          6           0        2.837155    2.726366    0.380820
     39          1           0        3.076945    2.543096    1.420140
     40          6           0        2.780960   -0.325164    1.503910
     41          6           0        2.672870   -0.518574    2.882280
     42          1           0        1.771340   -0.253892    3.418600
     43          6           0        3.744649   -1.038926    3.602280
     44          1           0        3.653199   -1.173575    4.672540
     45          6           0        4.926548   -1.376128    2.953950
     46          1           0        5.758377   -1.779429    3.517140
     47          6           0        5.041109   -1.186188    1.579380
     48          1           0        5.962218   -1.439399    1.069900
     49          6           0        3.975789   -0.665826    0.856600
     50          1           0        4.087060   -0.506406   -0.209600
     51         45           0        0.000219   -1.079189   -0.851550
     52          6           0       -1.455534   -2.661257   -1.653360
     53          6           0       -1.430462   -1.588817   -2.519130
     54          6           0        1.479877   -1.866942   -2.411220
     55          6           0        1.453556   -2.729322   -1.335320
     56          6           0       -0.732366   -3.979848   -1.855690
     57          1           0       -2.254214   -2.674735   -0.920530
     58          1           0       -2.219651   -0.850555   -2.416870
     59          6           0       -0.637962   -1.472348   -3.797140
     60          6           0        0.777997   -2.084551   -3.738530
     61          1           0        2.263699   -1.117163   -2.418530
     62          6           0        0.676834   -4.017930   -1.226280
     63          1           0        2.231206   -2.613203   -0.587150
     64          1           0       -1.330868   -4.774677   -1.407690
     65          1           0       -0.680887   -4.209538   -2.919620
     66          1           0       -1.204573   -1.926517   -4.619670
     67          1           0       -0.561070   -0.411078   -4.043370
     68          1           0        0.741965   -3.150010   -3.963750
     69          1           0        1.381368   -1.632662   -4.527400
     70          1           0        0.589243   -4.261410   -0.165230
     71          1           0        1.259722   -4.834351   -1.670760
 ---------------------------------------------------------------------

 SCF Done:  E(RB3LYP) =  -2163.86776706     A.U. after   16 cycles

      1  P    Isotropic =   287.8077   Anisotropy =    83.0444

      2  P    Isotropic =   291.8722   Anisotropy =    66.2301

      3  C    Isotropic =   130.7523   Anisotropy =    47.3160

      4  H    Isotropic =    27.0919   Anisotropy =     3.8046

      5  C    Isotropic =    70.8180   Anisotropy =   329.8420

      6  N    Isotropic =   -56.7181   Anisotropy =   464.9112

      7  C    Isotropic =    49.3725   Anisotropy =   157.8145

      8  C    Isotropic =    48.2534   Anisotropy =   188.6236

      9  H    Isotropic =    24.8152   Anisotropy =    11.1450

     10  C    Isotropic =    48.6493   Anisotropy =   191.4468

     11  H    Isotropic =    24.2142   Anisotropy =     6.0703

     12  C    Isotropic =    45.7136   Anisotropy =   198.0921

     13  H    Isotropic =    24.0612   Anisotropy =     3.8536

     14  C    Isotropic =    48.8786   Anisotropy =   191.4946

     15  H    Isotropic =    24.4065   Anisotropy =     7.7249

     16  C    Isotropic =    46.7420   Anisotropy =   193.9625

     17  H    Isotropic =    24.7951   Anisotropy =     6.8946

     18  C    Isotropic =    44.9737   Anisotropy =   170.9515

     19  C    Isotropic =    45.6519   Anisotropy =   191.9889

     20  H    Isotropic =    24.3927   Anisotropy =    12.5393

     21  C    Isotropic =    47.5039   Anisotropy =   191.9860

     22  H    Isotropic =    24.1241   Anisotropy =     6.4288

     23  C    Isotropic =    43.6355   Anisotropy =   200.4612

     24  H    Isotropic =    23.8733   Anisotropy =     3.9000

     25  C    Isotropic =    48.7614   Anisotropy =   188.8532

     26  H    Isotropic =    24.0064   Anisotropy =     7.0446

     27  C    Isotropic =    45.0266   Anisotropy =   178.3814

     28  H    Isotropic =    23.5731   Anisotropy =    10.1517

     29  C    Isotropic =    48.3945   Anisotropy =   164.3169

     30  C    Isotropic =    40.7791   Anisotropy =   180.8554

     31  H    Isotropic =    23.1924   Anisotropy =     8.8602

     32  C    Isotropic =    49.9333   Anisotropy =   187.4668

     33  H    Isotropic =    24.0855   Anisotropy =     6.7686

     34  C    Isotropic =    43.3540   Anisotropy =   201.1251

     35  H    Isotropic =    23.8193   Anisotropy =     3.7089

     36  C    Isotropic =    47.3650   Anisotropy =   192.1860

     37  H    Isotropic =    24.0246   Anisotropy =     6.3043

     38  C    Isotropic =    42.8505   Anisotropy =   195.5649

     39  H    Isotropic =    24.4233   Anisotropy =    11.3292

     40  C    Isotropic =    46.3784   Anisotropy =   167.9786

     41  C    Isotropic =    51.1530   Anisotropy =   185.1461

     42  H    Isotropic =    24.3879   Anisotropy =    11.2904

     43  C    Isotropic =    48.4218   Anisotropy =   191.3805

     44  H    Isotropic =    24.0519   Anisotropy =     6.3661

     45  C    Isotropic =    45.6234   Anisotropy =   198.0236

     46  H    Isotropic =    24.0122   Anisotropy =     3.4416

     47  C    Isotropic =    47.6754   Anisotropy =   192.9766

     48  H    Isotropic =    24.1974   Anisotropy =     6.6377

     49  C    Isotropic =    47.9393   Anisotropy =   188.0573

     50  H    Isotropic =    24.9382   Anisotropy =    11.3998

     51  Rh   Isotropic =  -308.8027   Anisotropy =   341.3964

     52  C    Isotropic =    77.4241   Anisotropy =   123.3240

     53  C    Isotropic =    72.2404   Anisotropy =   123.3661

     54  C    Isotropic =    79.3665   Anisotropy =   121.9588

     55  C    Isotropic =    71.2929   Anisotropy =   125.2042

     56  C    Isotropic =   153.9902   Anisotropy =    24.9549

     57  H    Isotropic =    26.7075   Anisotropy =     6.0237

     58  H    Isotropic =    26.5210   Anisotropy =     4.1016

     59  C    Isotropic =   147.8379   Anisotropy =    28.9294

     60  C    Isotropic =   153.9651   Anisotropy =    25.0155

     61  H    Isotropic =    26.7727   Anisotropy =     5.8843

     62  C    Isotropic =   147.8108   Anisotropy =    29.5602

     63  H    Isotropic =    26.5650   Anisotropy =     4.6845

     64  H    Isotropic =    29.7340   Anisotropy =    11.5548

     65  H    Isotropic =    29.6776   Anisotropy =     9.5485

     66  H    Isotropic =    29.1610   Anisotropy =    12.5137

     67  H    Isotropic =    29.2244   Anisotropy =     7.0884

     68  H    Isotropic =    29.6914   Anisotropy =     9.7347

     69  H    Isotropic =    29.7741   Anisotropy =    11.3666

     70  H    Isotropic =    29.0846   Anisotropy =     7.2283

     71  H    Isotropic =    29.1403   Anisotropy =    12.4861

 The electronic state is 1-A.
 Alpha  occ. eigenvalues --  -77.25642 -77.25527 -14.41707 -10.34846 -10.31472
 Alpha  occ. eigenvalues --  -10.30639 -10.30416 -10.30413 -10.30240 -10.30116
 Alpha  occ. eigenvalues --  -10.30066 -10.29856 -10.29831 -10.29248 -10.29178
 Alpha  occ. eigenvalues --  -10.29120 -10.28980 -10.28901 -10.28802 -10.28778
 Alpha  occ. eigenvalues --  -10.28594 -10.28378 -10.28343 -10.28282 -10.28248
 Alpha  occ. eigenvalues --  -10.28225 -10.28214 -10.28155 -10.28141 -10.28139
 Alpha  occ. eigenvalues --  -10.28105 -10.28084 -10.28035 -10.27885 -10.27878
 Alpha  occ. eigenvalues --  -10.27782 -10.27712  -6.71548  -6.71453  -4.87890
 Alpha  occ. eigenvalues --   -4.87790  -4.87735  -4.87634  -4.87430  -4.87342
 Alpha  occ. eigenvalues --   -3.32743  -2.09653  -2.09021  -2.06147  -1.01556
 Alpha  occ. eigenvalues --   -0.97623  -0.97383  -0.96761  -0.96625  -0.95366
 Alpha  occ. eigenvalues --   -0.91934  -0.90137  -0.88897  -0.88154  -0.86455
 Alpha  occ. eigenvalues --   -0.86003  -0.85959  -0.85815  -0.85614  -0.85579
 Alpha  occ. eigenvalues --   -0.85430  -0.81264  -0.78731  -0.76752  -0.76294
 Alpha  occ. eigenvalues --   -0.71950  -0.71905  -0.71732  -0.71459  -0.71429
 Alpha  occ. eigenvalues --   -0.70978  -0.70857  -0.69207  -0.67855  -0.66753
 Alpha  occ. eigenvalues --   -0.64497  -0.63598  -0.63234  -0.62790  -0.61333
 Alpha  occ. eigenvalues --   -0.60893  -0.60440  -0.58021  -0.57624  -0.57129
 Alpha  occ. eigenvalues --   -0.57007  -0.56791  -0.56667  -0.56270  -0.56139
 Alpha  occ. eigenvalues --   -0.55993  -0.55449  -0.54495  -0.54368  -0.53612
 Alpha  occ. eigenvalues --   -0.53582  -0.53515  -0.53321  -0.53187  -0.53042
 Alpha  occ. eigenvalues --   -0.52184  -0.51630  -0.51197  -0.49658  -0.49253
 Alpha  occ. eigenvalues --   -0.48755  -0.48559  -0.48304  -0.48010  -0.47375
 Alpha  occ. eigenvalues --   -0.47137  -0.46842  -0.46751  -0.46536  -0.45867
 Alpha  occ. eigenvalues --   -0.45767  -0.45727  -0.45564  -0.45057  -0.44504
 Alpha  occ. eigenvalues --   -0.44332  -0.44198  -0.43894  -0.42723  -0.42453
 Alpha  occ. eigenvalues --   -0.42169  -0.39133  -0.38473  -0.37630  -0.37029
 Alpha  occ. eigenvalues --   -0.36886  -0.36855  -0.36637  -0.36588  -0.36091
 Alpha  occ. eigenvalues --   -0.35961  -0.35600  -0.35148  -0.34787  -0.31876
 Alpha virt. eigenvalues --   -0.17458  -0.16018  -0.14867  -0.14573  -0.13386
 Alpha virt. eigenvalues --   -0.12971  -0.12447  -0.11805  -0.11758  -0.11120
 Alpha virt. eigenvalues --   -0.10210  -0.09718  -0.09121  -0.07798  -0.07560

 Mulliken charges:
               1
     1  P    0.434275
     2  P    0.392765
     3  C   -0.642751
     4  H    0.250467
     5  C    0.122066
     6  N   -0.064788
     7  C   -0.072637
     8  C   -0.145333
     9  H    0.163523
    10  C   -0.085346
    11  H    0.137475
    12  C   -0.096901
    13  H    0.139867
    14  C   -0.131293
    15  H    0.137788
    16  C   -0.061339
    17  H    0.146880
    18  C   -0.269313
    19  C   -0.049933
    20  H    0.169545
    21  C   -0.088584
    22  H    0.142094
    23  C   -0.084773
    24  H    0.143609
    25  C   -0.107306
    26  H    0.133476
    27  C   -0.068786
    28  H    0.179979
    29  C   -0.345706
    30  C   -0.000870
    31  H    0.174775
    32  C   -0.115533
    33  H    0.132485
    34  C   -0.087391
    35  H    0.142214
    36  C   -0.095344
    37  H    0.141017
    38  C   -0.003327
    39  H    0.156792
    40  C   -0.127338
    41  C   -0.069352
    42  H    0.126359
    43  C   -0.097971
    44  H    0.138622
    45  C   -0.094998
    46  H    0.143433
    47  C   -0.087960
    48  H    0.137247
    49  C   -0.099083
    50  H    0.157612
    51  Rh  -0.637194
    52  C   -0.050083
    53  C   -0.088799
    54  C   -0.046457
    55  C   -0.080671
    56  C   -0.348900
    57  H    0.202953
    58  H    0.201714
    59  C   -0.226478
    60  C   -0.357374
    61  H    0.190935
    62  C   -0.225180
    63  H    0.207257
    64  H    0.171057
    65  H    0.169820
    66  H    0.176983
    67  H    0.137499
    68  H    0.169874
    69  H    0.172451
    70  H    0.134079
    71  H    0.176103
 Sum of Mulliken charges =   1.00000

 Dipole moment (field-independent basis, Debye):
    X=              0.1338    Y=             -3.3635    Z=             -2.1569  Tot=              3.9980
 Quadrupole moment (field-independent basis, Debye-Ang):
   XX=           -188.5081   YY=           -212.9234   ZZ=           -213.0962
   XY=              0.8896   XZ=             -0.1895   YZ=            -16.6779

 Summary of Natural Population Analysis:

                                       Natural Population
                Natural  -----------------------------------------------
    Atom  No    Charge         Core      Valence    Rydberg      Total
 -----------------------------------------------------------------------
      P    1    1.15765      9.99639     3.79407    0.05189    13.84235
      P    2    1.15466      9.99639     3.79743    0.05152    13.84534
      C    3   -0.86399      1.99910     4.84338    0.02150     6.86399
      H    4    0.29317      0.00000     0.70400    0.00284     0.70683
      C    5    0.24508      1.99922     3.72090    0.03480     5.75492
      N    6   -0.26327      1.99961     5.24471    0.01895     7.26327
      C    7   -0.35525      1.99899     4.33250    0.02376     6.35525
      C    8   -0.19963      1.99909     4.18538    0.01516     6.19963
      H    9    0.21867      0.00000     0.77957    0.00175     0.78133
      C   10   -0.19108      1.99920     4.17719    0.01469     6.19108
      H   11    0.22397      0.00000     0.77482    0.00121     0.77603
      C   12   -0.17638      1.99920     4.16251    0.01466     6.17638
      H   13    0.22416      0.00000     0.77472    0.00112     0.77584
      C   14   -0.18645      1.99920     4.17193    0.01532     6.18645
      H   15    0.22475      0.00000     0.77390    0.00135     0.77525
      C   16   -0.18802      1.99909     4.17210    0.01683     6.18802
      H   17    0.22429      0.00000     0.77308    0.00262     0.77571
      C   18   -0.36124      1.99900     4.33879    0.02346     6.36124
      C   19   -0.18298      1.99910     4.16807    0.01581     6.18298
      H   20    0.22815      0.00000     0.77003    0.00182     0.77185
      C   21   -0.18736      1.99920     4.17370    0.01446     6.18736
      H   22    0.22677      0.00000     0.77203    0.00120     0.77323
      C   23   -0.16922      1.99921     4.15558    0.01443     6.16922
      H   24    0.22512      0.00000     0.77372    0.00116     0.77488
      C   25   -0.19516      1.99920     4.18137    0.01459     6.19516
      H   26    0.22296      0.00000     0.77582    0.00122     0.77704
      C   27   -0.19139      1.99909     4.17696    0.01533     6.19139
      H   28    0.21940      0.00000     0.77869    0.00191     0.78060
      C   29   -0.36767      1.99899     4.34458    0.02410     6.36767
      C   30   -0.18095      1.99909     4.16655    0.01531     6.18095
      H   31    0.22222      0.00000     0.77569    0.00210     0.77778
      C   32   -0.20064      1.99919     4.18683    0.01461     6.20064
      H   33    0.22234      0.00000     0.77642    0.00124     0.77766
      C   34   -0.16743      1.99921     4.15384    0.01438     6.16743
      H   35    0.22437      0.00000     0.77448    0.00115     0.77563
      C   36   -0.18798      1.99920     4.17406    0.01472     6.18798
      H   37    0.22718      0.00000     0.77160    0.00123     0.77282
      C   38   -0.17465      1.99909     4.15874    0.01682     6.17465
      H   39    0.22588      0.00000     0.77181    0.00231     0.77412
      C   40   -0.34709      1.99899     4.32486    0.02323     6.34709
      C   41   -0.19488      1.99909     4.18061    0.01518     6.19488
      H   42    0.20819      0.00000     0.78999    0.00182     0.79181
      C   43   -0.18496      1.99920     4.17115    0.01462     6.18496
      H   44    0.22530      0.00000     0.77350    0.00121     0.77470
      C   45   -0.17675      1.99920     4.16303    0.01452     6.17675
      H   46    0.22551      0.00000     0.77334    0.00116     0.77449
      C   47   -0.18626      1.99920     4.17252    0.01454     6.18626
      H   48    0.22481      0.00000     0.77398    0.00121     0.77519
      C   49   -0.19660      1.99909     4.18233    0.01519     6.19660
      H   50    0.21668      0.00000     0.78155    0.00177     0.78332
     Rh   51   -0.41032     35.98535     9.39515    0.02982    45.41032
      C   52   -0.17394      1.99906     4.15535    0.01952     6.17394
      C   53   -0.15122      1.99907     4.13228    0.01987     6.15122
      C   54   -0.17488      1.99906     4.15622    0.01960     6.17488
      C   55   -0.15216      1.99907     4.13331    0.01978     6.15216
      C   56   -0.42482      1.99936     4.41362    0.01183     6.42482
      H   57    0.22663      0.00000     0.77118    0.00219     0.77337
      H   58    0.23009      0.00000     0.76778    0.00213     0.76991
      C   59   -0.42101      1.99935     4.40934    0.01231     6.42101
      C   60   -0.42469      1.99936     4.41351    0.01181     6.42469
      H   61    0.22524      0.00000     0.77267    0.00210     0.77476
      C   62   -0.41943      1.99935     4.40741    0.01267     6.41943
      H   63    0.23190      0.00000     0.76585    0.00225     0.76810
      H   64    0.22968      0.00000     0.76883    0.00149     0.77032
      H   65    0.21642      0.00000     0.78160    0.00199     0.78358
      H   66    0.23706      0.00000     0.76107    0.00186     0.76294
      H   67    0.22043      0.00000     0.77812    0.00144     0.77957
      H   68    0.21650      0.00000     0.78156    0.00194     0.78350
      H   69    0.23016      0.00000     0.76837    0.00147     0.76984
      H   70    0.21784      0.00000     0.78063    0.00152     0.78216
      H   71    0.23655      0.00000     0.76158    0.00187     0.76345
 =======================================================================
   * Total *    1.00000    125.94886   191.26387    0.78727   318.00000

 Normal termination of Gaussian 16 at Wed Jan 22 03:06:53 2025.
