 Gaussian 16, Revision B.01,
 Gaussian 16:  ES64L-G16RevB.01 20-Dec-2017

 ------------------------------------------
 # nmr=giao b3lyp/genecp pop=nbo scfcyc=200
 ------------------------------------------

 ---------
 MS-12_SPE
 ---------
 Symbolic Z-matrix:
 Charge =  1 Multiplicity = 1

                         Standard orientation:
 ---------------------------------------------------------------------
 Center     Atomic      Atomic             Coordinates (Angstroms)
 Number     Number       Type             X           Y           Z
 ---------------------------------------------------------------------
      1         15           0       -1.372410    0.186150   -0.628880
      2         15           0        1.432390    0.121340   -0.592870
      3          6           0        0.043290    0.354850   -1.866320
      4          6           0        0.064560    1.436190   -2.937300
      5          6           0       -2.712729   -0.819720   -1.401600
      6          6           0       -4.019049   -0.694740   -0.913050
      7          6           0       -5.034819   -1.506991   -1.403520
      8          6           0       -4.761249   -2.456061   -2.383290
      9          6           0       -3.464869   -2.592880   -2.867250
     10          6           0       -2.444069   -1.786300   -2.374940
     11          6           0       -2.114080    1.853740   -0.382800
     12          6           0       -1.890230    2.535210    0.816700
     13          6           0       -2.424910    3.804810    1.015260
     14          6           0       -3.187080    4.402400    0.017930
     15          6           0       -3.415830    3.729500   -1.180090
     16          6           0       -2.884630    2.461860   -1.381820
     17          6           0        2.624131   -0.987559   -1.456920
     18          6           0        2.564411   -2.363010   -1.216010
     19          6           0        3.384021   -3.237519   -1.923090
     20          6           0        4.267821   -2.745689   -2.876900
     21          6           0        4.328461   -1.377309   -3.127310
     22          6           0        3.511361   -0.500159   -2.424300
     23          6           0        2.339980    1.691170   -0.273650
     24          6           0        1.676850    2.922030   -0.236500
     25          6           0        2.362220    4.080110    0.112910
     26          6           0        3.711310    4.023641    0.446620
     27          6           0        4.373320    2.800601    0.433260
     28          6           0        3.694440    1.640211    0.078320
     29          1           0        0.073811   -0.622760   -2.354830
     30          1           0       -0.757800    1.287360   -3.640210
     31          1           0       -0.023580    2.439510   -2.526530
     32          1           0        0.994330    1.385190   -3.507700
     33          1           0       -4.252700    0.047040   -0.159770
     34          1           0       -6.041569   -1.394371   -1.021180
     35          1           0       -5.554009   -3.085211   -2.767480
     36          1           0       -3.243969   -3.328700   -3.630200
     37          1           0       -1.443559   -1.924050   -2.764010
     38          1           0       -1.294560    2.069860    1.592270
     39          1           0       -2.249880    4.322490    1.950050
     40          1           0       -3.607470    5.388040    0.173370
     41          1           0       -4.012050    4.191370   -1.956990
     42          1           0       -3.084320    1.943670   -2.311000
     43          1           0        1.871421   -2.750040   -0.479560
     44          1           0        3.333401   -4.300979   -1.725760
     45          1           0        4.908501   -3.425189   -3.424630
     46          1           0        5.014061   -0.991429   -3.871290
     47          1           0        3.575500    0.561611   -2.624610
     48          1           0        0.623510    2.989840   -0.469380
     49          1           0        1.838290    5.027640    0.125080
     50          1           0        4.242840    4.926851    0.718080
     51          1           0        5.422130    2.746401    0.696880
     52          1           0        4.228700    0.699071    0.068190
     53         45           0       -0.013219   -0.660220    1.097920
     54          6           0        1.410761   -1.876030    2.425630
     55          6           0        1.384111   -0.570230    2.865510
     56          6           0       -1.529739   -0.851470    2.800110
     57          6           0       -1.495179   -2.032060    2.088140
     58          6           0        0.665911   -3.038550    3.055260
     59          1           0        2.221841   -2.146780    1.759400
     60          1           0        2.183260    0.082580    2.528740
     61          6           0        0.570180   -0.015290    4.008210
     62          6           0       -0.852809   -0.601500    4.134910
     63          1           0       -2.307200   -0.143970    2.533090
     64          6           0       -0.732109   -3.283360    2.446670
     65          1           0       -2.258909   -2.175970    1.330520
     66          1           0        1.261491   -3.943460    2.923420
     67          1           0        0.590761   -2.886240    4.131660
     68          1           0        1.115430   -0.160150    4.949370
     69          1           0        0.502000    1.066100    3.870460
     70          1           0       -0.833779   -1.523530    4.715350
     71          1           0       -1.463510    0.098560    4.707530
     72          1           0       -0.627219   -3.877800    1.536360
     73          1           0       -1.332569   -3.894380    3.132410
 ---------------------------------------------------------------------

 SCF Done:  E(RB3LYP) =  -2110.93460217     A.U. after   16 cycles

      1  P    Isotropic =   294.6290   Anisotropy =    74.5071

      2  P    Isotropic =   293.8331   Anisotropy =    99.8279

      3  C    Isotropic =   115.0343   Anisotropy =    57.3194

      4  C    Isotropic =   171.2371   Anisotropy =    17.6159

      5  C    Isotropic =    45.8814   Anisotropy =   169.7272

      6  C    Isotropic =    47.0926   Anisotropy =   189.3861

      7  C    Isotropic =    47.9533   Anisotropy =   191.2857

      8  C    Isotropic =    46.4007   Anisotropy =   195.8156

      9  C    Isotropic =    48.9530   Anisotropy =   189.7467

     10  C    Isotropic =    51.1701   Anisotropy =   188.0874

     11  C    Isotropic =    48.8610   Anisotropy =   168.8060

     12  C    Isotropic =    39.3831   Anisotropy =   182.7753

     13  C    Isotropic =    49.3377   Anisotropy =   187.9500

     14  C    Isotropic =    44.1990   Anisotropy =   199.4732

     15  C    Isotropic =    48.5121   Anisotropy =   189.7444

     16  C    Isotropic =    43.1018   Anisotropy =   191.3486

     17  C    Isotropic =    43.9402   Anisotropy =   176.0174

     18  C    Isotropic =    44.0337   Anisotropy =   177.9535

     19  C    Isotropic =    48.4605   Anisotropy =   188.8755

     20  C    Isotropic =    44.6835   Anisotropy =   198.7281

     21  C    Isotropic =    48.3182   Anisotropy =   189.8976

     22  C    Isotropic =    46.4456   Anisotropy =   187.5937

     23  C    Isotropic =    47.6353   Anisotropy =   164.4805

     24  C    Isotropic =    46.8865   Anisotropy =   187.2191

     25  C    Isotropic =    49.8408   Anisotropy =   188.7657

     26  C    Isotropic =    46.7184   Anisotropy =   195.4222

     27  C    Isotropic =    48.3935   Anisotropy =   190.7306

     28  C    Isotropic =    46.9255   Anisotropy =   189.2974

     29  H    Isotropic =    27.4503   Anisotropy =     3.5507

     30  H    Isotropic =    30.7254   Anisotropy =    10.4254

     31  H    Isotropic =    30.4442   Anisotropy =     4.7355

     32  H    Isotropic =    30.7431   Anisotropy =    10.4417

     33  H    Isotropic =    24.9119   Anisotropy =    12.1512

     34  H    Isotropic =    24.2693   Anisotropy =     6.5653

     35  H    Isotropic =    24.0853   Anisotropy =     3.5779

     36  H    Isotropic =    24.1086   Anisotropy =     6.6534

     37  H    Isotropic =    24.3176   Anisotropy =    11.3099

     38  H    Isotropic =    23.0168   Anisotropy =     9.5324

     39  H    Isotropic =    23.9197   Anisotropy =     6.8759

     40  H    Isotropic =    23.7899   Anisotropy =     3.7173

     41  H    Isotropic =    24.0663   Anisotropy =     6.0544

     42  H    Isotropic =    24.4190   Anisotropy =    11.3769

     43  H    Isotropic =    23.4729   Anisotropy =    10.4086

     44  H    Isotropic =    23.9365   Anisotropy =     7.0539

     45  H    Isotropic =    23.8739   Anisotropy =     3.8975

     46  H    Isotropic =    24.1175   Anisotropy =     6.3004

     47  H    Isotropic =    24.3227   Anisotropy =    12.1452

     48  H    Isotropic =    24.8677   Anisotropy =     7.4071

     49  H    Isotropic =    24.4303   Anisotropy =     7.9527

     50  H    Isotropic =    24.1481   Anisotropy =     4.0092

     51  H    Isotropic =    24.2566   Anisotropy =     6.0798

     52  H    Isotropic =    24.7196   Anisotropy =    11.6882

     53  Rh   Isotropic =  -305.2896   Anisotropy =   337.4882

     54  C    Isotropic =    78.5345   Anisotropy =   121.4315

     55  C    Isotropic =    73.0533   Anisotropy =   122.3089

     56  C    Isotropic =    79.8958   Anisotropy =   120.3127

     57  C    Isotropic =    72.8628   Anisotropy =   122.9933

     58  C    Isotropic =   154.0334   Anisotropy =    24.7547

     59  H    Isotropic =    26.7982   Anisotropy =     6.2572

     60  H    Isotropic =    26.7658   Anisotropy =     3.7469

     61  C    Isotropic =   147.9497   Anisotropy =    28.7744

     62  C    Isotropic =   154.0129   Anisotropy =    24.6512

     63  H    Isotropic =    26.9843   Anisotropy =     5.8532

     64  C    Isotropic =   148.0495   Anisotropy =    29.4913

     65  H    Isotropic =    26.9625   Anisotropy =     4.3416

     66  H    Isotropic =    29.7907   Anisotropy =    11.6319

     67  H    Isotropic =    29.7590   Anisotropy =     9.6626

     68  H    Isotropic =    29.2314   Anisotropy =    12.5559

     69  H    Isotropic =    29.3036   Anisotropy =     7.1830

     70  H    Isotropic =    29.7689   Anisotropy =     9.8064

     71  H    Isotropic =    29.8274   Anisotropy =    11.4046

     72  H    Isotropic =    29.1788   Anisotropy =     7.3336

     73  H    Isotropic =    29.2492   Anisotropy =    12.4829

 The electronic state is 1-A.
 Alpha  occ. eigenvalues --  -77.23784 -77.23768 -10.31282 -10.29823 -10.29812
 Alpha  occ. eigenvalues --  -10.29758 -10.29674 -10.29111 -10.29051 -10.28836
 Alpha  occ. eigenvalues --  -10.28817 -10.28638 -10.28630 -10.28513 -10.28455
 Alpha  occ. eigenvalues --  -10.28399 -10.28280 -10.28238 -10.28170 -10.28020
 Alpha  occ. eigenvalues --  -10.27901 -10.27867 -10.27746 -10.27688 -10.27648
 Alpha  occ. eigenvalues --  -10.27643 -10.27583 -10.27555 -10.27509 -10.27508
 Alpha  occ. eigenvalues --  -10.27505 -10.27489 -10.27464 -10.27390 -10.27326
 Alpha  occ. eigenvalues --  -10.27312  -6.69747  -6.69744  -4.86019  -4.86013
 Alpha  occ. eigenvalues --   -4.85981  -4.85977  -4.85648  -4.85648  -3.31523
 Alpha  occ. eigenvalues --   -2.08412  -2.07765  -2.04990  -0.97090  -0.96808
 Alpha  occ. eigenvalues --   -0.96292  -0.96131  -0.94430  -0.90892  -0.89167
 Alpha  occ. eigenvalues --   -0.88021  -0.87457  -0.86076  -0.85640  -0.85435
 Alpha  occ. eigenvalues --   -0.85390  -0.85188  -0.85074  -0.84902  -0.80374
 Alpha  occ. eigenvalues --   -0.78822  -0.77836  -0.75829  -0.72283  -0.71468
 Alpha  occ. eigenvalues --   -0.71384  -0.71013  -0.70790  -0.70590  -0.70466
 Alpha  occ. eigenvalues --   -0.70285  -0.67222  -0.66052  -0.65829  -0.62799
 Alpha  occ. eigenvalues --   -0.62587  -0.62183  -0.61139  -0.60596  -0.59990
 Alpha  occ. eigenvalues --   -0.57104  -0.56961  -0.56571  -0.56383  -0.56247
 Alpha  occ. eigenvalues --   -0.56187  -0.55849  -0.55709  -0.55534  -0.55116
 Alpha  occ. eigenvalues --   -0.54733  -0.53677  -0.53289  -0.53149  -0.52911
 Alpha  occ. eigenvalues --   -0.52836  -0.52738  -0.52585  -0.52384  -0.52173
 Alpha  occ. eigenvalues --   -0.51449  -0.51116  -0.48958  -0.48573  -0.48147
 Alpha  occ. eigenvalues --   -0.48095  -0.47886  -0.47686  -0.47420  -0.47193
 Alpha  occ. eigenvalues --   -0.46149  -0.46026  -0.45902  -0.45390  -0.45205
 Alpha  occ. eigenvalues --   -0.45177  -0.44821  -0.43880  -0.43440  -0.43340
 Alpha  occ. eigenvalues --   -0.43098  -0.42563  -0.42468  -0.41396  -0.38184
 Alpha  occ. eigenvalues --   -0.37659  -0.37070  -0.36557  -0.36363  -0.36203
 Alpha  occ. eigenvalues --   -0.36015  -0.35774  -0.35570  -0.35233  -0.34599
 Alpha  occ. eigenvalues --   -0.34139  -0.33658  -0.30715
 Alpha virt. eigenvalues --   -0.16461  -0.14956  -0.13994  -0.13495  -0.12708
 Alpha virt. eigenvalues --   -0.12530  -0.11867  -0.11164  -0.10795  -0.10418
 Alpha virt. eigenvalues --   -0.09285  -0.07686  -0.06944  -0.06359  -0.05911

 Mulliken charges:
               1
     1  P    0.417863
     2  P    0.393293
     3  C   -0.471363
     4  C   -0.314041
     5  C   -0.138555
     6  C   -0.082310
     7  C   -0.088865
     8  C   -0.101667
     9  C   -0.095212
    10  C   -0.093298
    11  C   -0.322574
    12  C   -0.053383
    13  C   -0.099623
    14  C   -0.099804
    15  C   -0.080244
    16  C   -0.060468
    17  C   -0.241973
    18  C   -0.076896
    19  C   -0.102395
    20  C   -0.094938
    21  C   -0.086670
    22  C   -0.097427
    23  C   -0.107049
    24  C   -0.084108
    25  C   -0.137064
    26  C   -0.088174
    27  C   -0.097555
    28  C   -0.106589
    29  H    0.208276
    30  H    0.146759
    31  H    0.144407
    32  H    0.153535
    33  H    0.156521
    34  H    0.136296
    35  H    0.140312
    36  H    0.132846
    37  H    0.124322
    38  H    0.182377
    39  H    0.133131
    40  H    0.139495
    41  H    0.138744
    42  H    0.151011
    43  H    0.175897
    44  H    0.131494
    45  H    0.140482
    46  H    0.137553
    47  H    0.162291
    48  H    0.170167
    49  H    0.130466
    50  H    0.138357
    51  H    0.135461
    52  H    0.163977
    53  Rh  -0.610942
    54  C   -0.046531
    55  C   -0.095965
    56  C   -0.047953
    57  C   -0.090566
    58  C   -0.346142
    59  H    0.196401
    60  H    0.198842
    61  C   -0.221768
    62  C   -0.352458
    63  H    0.192999
    64  C   -0.223085
    65  H    0.205218
    66  H    0.167849
    67  H    0.166723
    68  H    0.173212
    69  H    0.132948
    70  H    0.166714
    71  H    0.168346
    72  H    0.130954
    73  H    0.172117
 Sum of Mulliken charges =   1.00000

 Dipole moment (field-independent basis, Debye):
    X=             -0.1723    Y=              0.0782    Z=             -0.4798  Tot=              0.5157
 Quadrupole moment (field-independent basis, Debye-Ang):
   XX=           -191.5128   YY=           -197.0346   ZZ=           -209.8910
   XY=             -2.6910   XZ=             -0.8846   YZ=              4.5394

 Summary of Natural Population Analysis:

                                       Natural Population
                Natural  -----------------------------------------------
    Atom  No    Charge         Core      Valence    Rydberg      Total
 -----------------------------------------------------------------------
      P    1    1.12724      9.99637     3.82563    0.05076    13.87276
      P    2    1.12477      9.99639     3.82780    0.05104    13.87523
      C    3   -0.73307      1.99941     4.71183    0.02184     6.73307
      C    4   -0.61375      1.99939     4.60392    0.01043     6.61375
      C    5   -0.34067      1.99899     4.31806    0.02362     6.34067
      C    6   -0.19885      1.99910     4.18458    0.01517     6.19885
      C    7   -0.18873      1.99920     4.17484    0.01470     6.18873
      C    8   -0.18140      1.99920     4.16751    0.01469     6.18140
      C    9   -0.18879      1.99920     4.17488    0.01471     6.18879
      C   10   -0.19696      1.99909     4.18258    0.01529     6.19696
      C   11   -0.35571      1.99899     4.33221    0.02452     6.35571
      C   12   -0.18816      1.99909     4.17331    0.01575     6.18816
      C   13   -0.20062      1.99919     4.18678    0.01465     6.20062
      C   14   -0.17365      1.99921     4.15991    0.01454     6.17365
      C   15   -0.19427      1.99920     4.18046    0.01462     6.19427
      C   16   -0.18682      1.99909     4.17169    0.01603     6.18682
      C   17   -0.34746      1.99899     4.32502    0.02344     6.34746
      C   18   -0.19182      1.99910     4.17718    0.01554     6.19182
      C   19   -0.19528      1.99920     4.18148    0.01460     6.19528
      C   20   -0.17520      1.99921     4.16146    0.01454     6.17520
      C   21   -0.19136      1.99920     4.17757    0.01459     6.19136
      C   22   -0.19379      1.99910     4.17855    0.01614     6.19379
      C   23   -0.34473      1.99899     4.32216    0.02359     6.34473
      C   24   -0.19585      1.99909     4.18140    0.01535     6.19585
      C   25   -0.19138      1.99920     4.17767    0.01452     6.19138
      C   26   -0.18133      1.99920     4.16748    0.01465     6.18133
      C   27   -0.19083      1.99920     4.17693    0.01471     6.19083
      C   28   -0.19995      1.99910     4.18568    0.01517     6.19995
      H   29    0.25290      0.00000     0.74532    0.00178     0.74710
      H   30    0.22368      0.00000     0.77468    0.00164     0.77632
      H   31    0.21793      0.00000     0.78034    0.00173     0.78207
      H   32    0.22601      0.00000     0.77232    0.00167     0.77399
      H   33    0.22020      0.00000     0.77807    0.00173     0.77980
      H   34    0.22329      0.00000     0.77549    0.00122     0.77671
      H   35    0.22369      0.00000     0.77515    0.00117     0.77631
      H   36    0.22224      0.00000     0.77653    0.00123     0.77776
      H   37    0.20606      0.00000     0.79205    0.00189     0.79394
      H   38    0.22444      0.00000     0.77348    0.00208     0.77556
      H   39    0.22203      0.00000     0.77674    0.00124     0.77797
      H   40    0.22379      0.00000     0.77504    0.00117     0.77621
      H   41    0.22452      0.00000     0.77425    0.00123     0.77548
      H   42    0.22043      0.00000     0.77752    0.00205     0.77957
      H   43    0.22004      0.00000     0.77797    0.00199     0.77996
      H   44    0.22162      0.00000     0.77715    0.00122     0.77838
      H   45    0.22364      0.00000     0.77519    0.00117     0.77636
      H   46    0.22383      0.00000     0.77494    0.00123     0.77617
      H   47    0.22084      0.00000     0.77703    0.00213     0.77916
      H   48    0.21499      0.00000     0.78269    0.00232     0.78501
      H   49    0.22099      0.00000     0.77776    0.00125     0.77901
      H   50    0.22288      0.00000     0.77595    0.00117     0.77712
      H   51    0.22299      0.00000     0.77579    0.00122     0.77701
      H   52    0.22155      0.00000     0.77669    0.00177     0.77845
     Rh   53   -0.40563     35.98579     9.38995    0.02989    45.40563
      C   54   -0.17885      1.99906     4.16022    0.01956     6.17885
      C   55   -0.15422      1.99908     4.13532    0.01982     6.15422
      C   56   -0.17877      1.99906     4.16018    0.01953     6.17877
      C   57   -0.15495      1.99907     4.13620    0.01967     6.15495
      C   58   -0.42407      1.99936     4.41286    0.01185     6.42407
      H   59    0.22550      0.00000     0.77234    0.00216     0.77450
      H   60    0.23028      0.00000     0.76760    0.00211     0.76972
      C   61   -0.41999      1.99935     4.40835    0.01229     6.41999
      C   62   -0.42399      1.99936     4.41281    0.01181     6.42399
      H   63    0.22487      0.00000     0.77302    0.00210     0.77513
      C   64   -0.41838      1.99935     4.40641    0.01262     6.41838
      H   65    0.23188      0.00000     0.76607    0.00206     0.76812
      H   66    0.22775      0.00000     0.77074    0.00151     0.77225
      H   67    0.21507      0.00000     0.78292    0.00201     0.78493
      H   68    0.23469      0.00000     0.76342    0.00189     0.76531
      H   69    0.21871      0.00000     0.77982    0.00147     0.78129
      H   70    0.21530      0.00000     0.78275    0.00195     0.78470
      H   71    0.22786      0.00000     0.77065    0.00149     0.77214
      H   72    0.21653      0.00000     0.78190    0.00157     0.78347
      H   73    0.23427      0.00000     0.76383    0.00189     0.76573
 =======================================================================
   * Total *    1.00000    123.95017   189.30405    0.74578   314.00000

 Normal termination of Gaussian 16 at Wed Jan 22 03:00:15 2025.
