 Gaussian 16, Revision B.01,
 Gaussian 16:  ES64L-G16RevB.01 20-Dec-2017

 ------------------------------------------
 # nmr=giao b3lyp/genecp pop=nbo scfcyc=200
 ------------------------------------------

 ---------
 MS-10_SPE
 ---------
 Symbolic Z-matrix:
 Charge =  1 Multiplicity = 1

                         Standard orientation:
 ---------------------------------------------------------------------
 Center     Atomic      Atomic             Coordinates (Angstroms)
 Number     Number       Type             X           Y           Z
 ---------------------------------------------------------------------
      1         15           0       -0.275310   -1.484009    0.023961
      2         15           0       -0.233641    1.481951    0.021071
      3          6           0       -1.502290    0.013431    0.312251
      4          1           0       -1.460640    0.018971    1.399301
      5          6           0       -0.644079   -2.472629   -1.625529
      6          6           0       -0.204520   -1.588229   -2.799439
      7          1           0       -0.289599   -2.163579   -3.724989
      8          1           0        0.830380   -1.258498   -2.698369
      9          1           0       -0.833390   -0.712199   -2.908659
     10          6           0        0.196491   -3.761889   -1.683869
     11          1           0        0.115832   -4.161089   -2.698169
     12          1           0       -0.174718   -4.533149   -1.013639
     13          1           0        1.255411   -3.601968   -1.487899
     14          6           0       -2.115979   -2.875000   -1.821369
     15          1           0       -2.794649   -2.029260   -1.824309
     16          1           0       -2.460229   -3.583540   -1.073169
     17          1           0       -2.200829   -3.368590   -2.794209
     18          6           0       -0.502919   -2.704629    1.529801
     19          6           0        0.656811   -3.720118    1.573601
     20          1           0        1.629511   -3.238118    1.642901
     21          1           0        0.673152   -4.400888    0.730181
     22          1           0        0.535662   -4.328398    2.473941
     23          6           0       -1.831989   -3.476479    1.499491
     24          1           0       -1.984689   -3.955190    2.471001
     25          1           0       -1.825038   -4.269269    0.753681
     26          1           0       -2.692389   -2.838080    1.305611
     27          6           0       -0.411399   -1.894159    2.832561
     28          1           0       -0.365049   -2.592509    3.671761
     29          1           0       -1.280020   -1.262869    3.001541
     30          1           0        0.486830   -1.277438    2.866981
     31          6           0       -0.530191    2.667971   -1.510889
     32          6           0        0.609988    3.710372   -1.542459
     33          1           0        1.599098    3.257382   -1.531499
     34          1           0        0.557708    4.436942   -0.741529
     35          1           0        0.522228    4.264062   -2.480569
     36          6           0       -0.397831    1.874841   -2.819899
     37          1           0       -0.333191    2.587141   -3.646009
     38          1           0       -1.255611    1.243661   -3.025129
     39          1           0        0.502159    1.261352   -2.840009
     40          6           0       -1.872982    3.414010   -1.487869
     41          1           0       -1.907062    4.167420   -0.703079
     42          1           0       -2.728052    2.752240   -1.368859
     43          1           0       -1.992142    3.941560   -2.438839
     44          6           0       -0.468591    2.533371    1.664061
     45          6           0        0.060709    1.680101    2.830081
     46          1           0        0.029659    2.279511    3.743291
     47          1           0        1.091119    1.362192    2.667441
     48          1           0       -0.539891    0.794521    3.017421
     49          6           0       -1.942832    2.887880    1.922731
     50          1           0       -2.023672    3.328350    2.920801
     51          1           0       -2.604001    2.027450    1.892271
     52          1           0       -2.323092    3.620490    1.215381
     53          6           0        0.333238    3.847031    1.672461
     54          1           0       -0.102742    4.606271    1.028471
     55          1           0        1.382318    3.720262    1.409441
     56          1           0        0.304928    4.246861    2.689331
     57         45           0        1.670610   -0.017038   -0.025019
     58          6           0        3.310549    1.146553   -1.047269
     59          6           0        3.226499    1.594303    0.257581
     60          6           0        3.361170   -1.197647    0.911901
     61          6           0        3.196760   -1.648277   -0.382619
     62          1           0        2.761359    1.702813   -1.796919
     63          6           0        4.398300    0.245243   -1.602519
     64          1           0        2.669749    2.506363    0.429051
     65          6           0        4.128159    1.191613    1.396561
     66          6           0        4.488260   -0.306617    1.399001
     67          1           0        2.846270   -1.740827    1.694371
     68          1           0        2.620871   -2.554287   -0.516769
     69          6           0        4.030360   -1.251797   -1.574579
     70          1           0        5.327110    0.419174   -1.059529
     71          1           0        4.595669    0.539103   -2.634759
     72          1           0        5.043449    1.796224    1.382691
     73          1           0        3.622559    1.441993    2.331641
     74          1           0        4.748660   -0.604807    2.415961
     75          1           0        5.379240   -0.485226    0.797481
     76          1           0        4.941891   -1.860786   -1.615359
     77          1           0        3.467400   -1.500887   -2.476659
     78          6           0       -2.969810    0.046860   -0.072249
     79          6           0       -3.339550    0.244930   -1.407989
     80          6           0       -4.008190   -0.097550    0.880741
     81          6           0       -4.659490    0.301279   -1.825249
     82          1           0       -2.565910    0.345310   -2.150419
     83          6           0       -5.336780   -0.035831    0.441981
     84          6           0       -5.673860    0.159329   -0.887849
     85          1           0       -4.890890    0.455559   -2.871669
     86          1           0       -6.127020   -0.140381    1.175991
     87          1           0       -6.713660    0.203668   -1.185779
     88          6           0       -3.803390   -0.337220    2.359491
     89          1           0       -2.957290    0.203290    2.780641
     90          1           0       -4.686940   -0.020571    2.913121
     91          1           0       -3.654720   -1.396450    2.579631
 ---------------------------------------------------------------------

 SCF Done:  E(RB3LYP) =  -2046.72730438     A.U. after   16 cycles

      1  P    Isotropic =   226.5794   Anisotropy =    67.5220

      2  P    Isotropic =   221.6706   Anisotropy =    99.9435

      3  C    Isotropic =   108.6559   Anisotropy =    64.8620

      4  H    Isotropic =    26.0248   Anisotropy =     4.6351

      5  C    Isotropic =   126.0020   Anisotropy =    46.4618

      6  C    Isotropic =   147.5750   Anisotropy =    39.7594

      7  H    Isotropic =    30.6245   Anisotropy =     8.9696

      8  H    Isotropic =    29.1376   Anisotropy =     6.3451

      9  H    Isotropic =    29.4901   Anisotropy =     8.6523

     10  C    Isotropic =   149.1591   Anisotropy =    39.1467

     11  H    Isotropic =    30.7607   Anisotropy =     9.6961

     12  H    Isotropic =    30.2953   Anisotropy =     7.0338

     13  H    Isotropic =    30.2848   Anisotropy =     5.5349

     14  C    Isotropic =   155.7623   Anisotropy =    37.1591

     15  H    Isotropic =    30.2811   Anisotropy =    13.5444

     16  H    Isotropic =    30.7125   Anisotropy =     5.5051

     17  H    Isotropic =    31.2088   Anisotropy =    10.1619

     18  C    Isotropic =   129.0907   Anisotropy =    41.4456

     19  C    Isotropic =   153.9149   Anisotropy =    43.3588

     20  H    Isotropic =    31.1592   Anisotropy =     6.6330

     21  H    Isotropic =    30.2853   Anisotropy =     6.3470

     22  H    Isotropic =    31.0345   Anisotropy =    10.5153

     23  C    Isotropic =   154.6309   Anisotropy =    32.8982

     24  H    Isotropic =    30.8258   Anisotropy =    10.4625

     25  H    Isotropic =    30.4992   Anisotropy =     6.8918

     26  H    Isotropic =    30.7203   Anisotropy =     6.6304

     27  C    Isotropic =   149.5893   Anisotropy =    37.2698

     28  H    Isotropic =    30.8431   Anisotropy =     9.0951

     29  H    Isotropic =    29.9121   Anisotropy =     6.8740

     30  H    Isotropic =    30.2807   Anisotropy =     6.1108

     31  C    Isotropic =   126.5241   Anisotropy =    46.6939

     32  C    Isotropic =   151.6302   Anisotropy =    44.2412

     33  H    Isotropic =    31.1139   Anisotropy =     6.1147

     34  H    Isotropic =    30.2031   Anisotropy =     6.7138

     35  H    Isotropic =    31.0744   Anisotropy =    10.1659

     36  C    Isotropic =   147.0396   Anisotropy =    39.6786

     37  H    Isotropic =    30.7340   Anisotropy =     9.1784

     38  H    Isotropic =    29.6527   Anisotropy =     6.4806

     39  H    Isotropic =    29.9148   Anisotropy =     5.7626

     40  C    Isotropic =   155.7409   Anisotropy =    33.8990

     41  H    Isotropic =    30.7103   Anisotropy =     6.5141

     42  H    Isotropic =    30.5004   Anisotropy =     9.1664

     43  H    Isotropic =    31.0102   Anisotropy =    10.8062

     44  C    Isotropic =   125.7633   Anisotropy =    45.1294

     45  C    Isotropic =   148.1462   Anisotropy =    40.5995

     46  H    Isotropic =    30.6960   Anisotropy =     9.0484

     47  H    Isotropic =    29.2726   Anisotropy =     7.0158

     48  H    Isotropic =    29.6938   Anisotropy =     7.6005

     49  C    Isotropic =   155.4810   Anisotropy =    39.8279

     50  H    Isotropic =    30.9253   Anisotropy =    10.2217

     51  H    Isotropic =    30.6267   Anisotropy =     9.9427

     52  H    Isotropic =    30.6130   Anisotropy =     6.0210

     53  C    Isotropic =   149.9259   Anisotropy =    36.7491

     54  H    Isotropic =    30.3075   Anisotropy =     7.3178

     55  H    Isotropic =    30.2689   Anisotropy =     5.5103

     56  H    Isotropic =    30.6452   Anisotropy =     9.8393

     57  Rh   Isotropic =  -355.3724   Anisotropy =   410.8693

     58  C    Isotropic =    78.2879   Anisotropy =   123.8763

     59  C    Isotropic =    88.4845   Anisotropy =   103.6999

     60  C    Isotropic =    76.2074   Anisotropy =   126.6388

     61  C    Isotropic =    87.8350   Anisotropy =   104.3154

     62  H    Isotropic =    26.5243   Anisotropy =     5.5053

     63  C    Isotropic =   153.7992   Anisotropy =    27.3187

     64  H    Isotropic =    26.6579   Anisotropy =     4.4369

     65  C    Isotropic =   147.9720   Anisotropy =    29.5293

     66  C    Isotropic =   153.7294   Anisotropy =    27.2938

     67  H    Isotropic =    26.4995   Anisotropy =     5.6102

     68  H    Isotropic =    26.5830   Anisotropy =     4.3950

     69  C    Isotropic =   148.4884   Anisotropy =    28.8745

     70  H    Isotropic =    29.7499   Anisotropy =     9.7774

     71  H    Isotropic =    29.7672   Anisotropy =    11.5942

     72  H    Isotropic =    29.1364   Anisotropy =    12.7584

     73  H    Isotropic =    29.0839   Anisotropy =     6.8070

     74  H    Isotropic =    29.7910   Anisotropy =    11.6222

     75  H    Isotropic =    29.7626   Anisotropy =     9.7007

     76  H    Isotropic =    29.1590   Anisotropy =    12.8149

     77  H    Isotropic =    29.0745   Anisotropy =     6.8622

     78  C    Isotropic =    42.8222   Anisotropy =   173.2282

     79  C    Isotropic =    41.9629   Anisotropy =   181.3033

     80  C    Isotropic =    42.5441   Anisotropy =   182.1886

     81  C    Isotropic =    53.0417   Anisotropy =   181.8631

     82  H    Isotropic =    23.7931   Anisotropy =     8.2194

     83  C    Isotropic =    44.5046   Anisotropy =   163.5284

     84  C    Isotropic =    48.1670   Anisotropy =   189.6123

     85  H    Isotropic =    24.4031   Anisotropy =     6.9789

     86  H    Isotropic =    24.3806   Anisotropy =     7.9086

     87  H    Isotropic =    24.3179   Anisotropy =     3.2850

     88  C    Isotropic =   158.7672   Anisotropy =    24.3322

     89  H    Isotropic =    29.3081   Anisotropy =     6.3369

     90  H    Isotropic =    29.3520   Anisotropy =    10.2445

     91  H    Isotropic =    29.2494   Anisotropy =     5.9763

 The electronic state is 1-A.
 Alpha  occ. eigenvalues --  -77.23145 -77.23006 -10.31961 -10.31385 -10.31224
 Alpha  occ. eigenvalues --  -10.31140 -10.31139 -10.29248 -10.29169 -10.29161
 Alpha  occ. eigenvalues --  -10.28792 -10.28745 -10.28718 -10.27553 -10.27533
 Alpha  occ. eigenvalues --  -10.27344 -10.27342 -10.27137 -10.26786 -10.26732
 Alpha  occ. eigenvalues --  -10.26718 -10.26679 -10.26621 -10.26593 -10.26576
 Alpha  occ. eigenvalues --  -10.26547 -10.26544 -10.26412 -10.26389 -10.26351
 Alpha  occ. eigenvalues --  -10.26209 -10.26111 -10.25987 -10.25459  -6.68900
 Alpha  occ. eigenvalues --   -6.68786  -4.85200  -4.85095  -4.85085  -4.84979
 Alpha  occ. eigenvalues --   -4.84823  -4.84706  -3.31258  -2.08076  -2.07470
 Alpha  occ. eigenvalues --   -2.04721  -0.96536  -0.94646  -0.93310  -0.92910
 Alpha  occ. eigenvalues --   -0.91556  -0.91371  -0.89188  -0.88363  -0.88133
 Alpha  occ. eigenvalues --   -0.87033  -0.82141  -0.80558  -0.80125  -0.79761
 Alpha  occ. eigenvalues --   -0.79659  -0.79512  -0.79403  -0.78824  -0.78596
 Alpha  occ. eigenvalues --   -0.78590  -0.78319  -0.77839  -0.74066  -0.72763
 Alpha  occ. eigenvalues --   -0.70640  -0.69574  -0.67787  -0.66184  -0.65825
 Alpha  occ. eigenvalues --   -0.65524  -0.63084  -0.62598  -0.62510  -0.60821
 Alpha  occ. eigenvalues --   -0.60361  -0.58787  -0.57654  -0.57013  -0.56794
 Alpha  occ. eigenvalues --   -0.56724  -0.56195  -0.55969  -0.55828  -0.55009
 Alpha  occ. eigenvalues --   -0.54812  -0.54698  -0.53953  -0.53802  -0.53652
 Alpha  occ. eigenvalues --   -0.53491  -0.53412  -0.53078  -0.52662  -0.52560
 Alpha  occ. eigenvalues --   -0.52236  -0.51427  -0.51008  -0.50580  -0.50321
 Alpha  occ. eigenvalues --   -0.49837  -0.49348  -0.49046  -0.48925  -0.48690
 Alpha  occ. eigenvalues --   -0.48616  -0.48349  -0.48263  -0.48074  -0.47757
 Alpha  occ. eigenvalues --   -0.47522  -0.46931  -0.46669  -0.46350  -0.46282
 Alpha  occ. eigenvalues --   -0.46059  -0.45927  -0.45529  -0.44897  -0.44765
 Alpha  occ. eigenvalues --   -0.44731  -0.44432  -0.44311  -0.43920  -0.43683
 Alpha  occ. eigenvalues --   -0.43452  -0.42945  -0.42893  -0.42688  -0.42116
 Alpha  occ. eigenvalues --   -0.41264  -0.40250  -0.40129  -0.39905  -0.36462
 Alpha  occ. eigenvalues --   -0.35956  -0.34962  -0.34633  -0.34179  -0.33821
 Alpha  occ. eigenvalues --   -0.33157  -0.30532
 Alpha virt. eigenvalues --   -0.16372  -0.13858  -0.12101  -0.11043  -0.09485
 Alpha virt. eigenvalues --   -0.09144  -0.07886  -0.07403  -0.06662  -0.06461
 Alpha virt. eigenvalues --   -0.06253  -0.05534  -0.04904  -0.04557  -0.04031

 Mulliken charges:
               1
     1  P    0.421759
     2  P    0.426871
     3  C   -0.587044
     4  H    0.050806
     5  C    0.016318
     6  C   -0.380134
     7  H    0.154608
     8  H    0.146377
     9  H    0.117991
    10  C   -0.451100
    11  H    0.153646
    12  H    0.146490
    13  H    0.142725
    14  C   -0.405121
    15  H    0.201017
    16  H    0.146662
    17  H    0.143569
    18  C    0.038699
    19  C   -0.440438
    20  H    0.149209
    21  H    0.161929
    22  H    0.154757
    23  C   -0.430178
    24  H    0.151620
    25  H    0.150592
    26  H    0.157871
    27  C   -0.459445
    28  H    0.160300
    29  H    0.134184
    30  H    0.157768
    31  C    0.064173
    32  C   -0.464275
    33  H    0.155173
    34  H    0.162487
    35  H    0.157043
    36  C   -0.442470
    37  H    0.156418
    38  H    0.154095
    39  H    0.145308
    40  C   -0.414867
    41  H    0.134557
    42  H    0.195492
    43  H    0.146475
    44  C   -0.052997
    45  C   -0.397704
    46  H    0.157881
    47  H    0.150834
    48  H    0.138166
    49  C   -0.347115
    50  H    0.147736
    51  H    0.117962
    52  H    0.153242
    53  C   -0.429239
    54  H    0.145933
    55  H    0.146058
    56  H    0.150464
    57  Rh  -0.597706
    58  C   -0.007557
    59  C   -0.103578
    60  C   -0.007921
    61  C   -0.100630
    62  H    0.158724
    63  C   -0.344965
    64  H    0.197957
    65  C   -0.256142
    66  C   -0.340321
    67  H    0.151460
    68  H    0.209109
    69  C   -0.255359
    70  H    0.171507
    71  H    0.169554
    72  H    0.171078
    73  H    0.135315
    74  H    0.169320
    75  H    0.171468
    76  H    0.171643
    77  H    0.136386
    78  C    0.266699
    79  C   -0.235201
    80  C    0.054149
    81  C   -0.066026
    82  H    0.054069
    83  C   -0.111196
    84  C   -0.103250
    85  H    0.126661
    86  H    0.122908
    87  H    0.126319
    88  C   -0.486709
    89  H    0.145250
    90  H    0.162097
    91  H    0.181754
 Sum of Mulliken charges =   1.00000

 Dipole moment (field-independent basis, Debye):
    X=              0.3991    Y=              0.0188    Z=              0.3791  Tot=              0.5507
 Quadrupole moment (field-independent basis, Debye-Ang):
   XX=           -201.7307   YY=           -217.1510   ZZ=           -223.4160
   XY=              0.3016   XZ=             -1.3493   YZ=             -0.8929

 Summary of Natural Population Analysis:

                                       Natural Population
                Natural  -----------------------------------------------
    Atom  No    Charge         Core      Valence    Rydberg      Total
 -----------------------------------------------------------------------
      P    1    1.03480      9.99684     3.92344    0.04492    13.96520
      P    2    1.03410      9.99682     3.92434    0.04473    13.96590
      C    3   -0.76062      1.99920     4.73556    0.02586     6.76062
      H    4    0.26574      0.00000     0.73000    0.00426     0.73426
      C    5   -0.24208      1.99938     4.22513    0.01757     6.24208
      C    6   -0.59653      1.99935     4.58843    0.00875     6.59653
      H    7    0.21884      0.00000     0.77925    0.00191     0.78116
      H    8    0.21691      0.00000     0.78124    0.00185     0.78309
      H    9    0.20401      0.00000     0.79432    0.00166     0.79599
      C   10   -0.59894      1.99934     4.59121    0.00840     6.59894
      H   11    0.22263      0.00000     0.77546    0.00191     0.77737
      H   12    0.20688      0.00000     0.79136    0.00176     0.79312
      H   13    0.20430      0.00000     0.79418    0.00152     0.79570
      C   14   -0.61195      1.99934     4.60270    0.00991     6.61195
      H   15    0.22300      0.00000     0.77521    0.00179     0.77700
      H   16    0.21065      0.00000     0.78771    0.00164     0.78935
      H   17    0.21637      0.00000     0.78178    0.00185     0.78363
      C   18   -0.25178      1.99939     4.23507    0.01731     6.25178
      C   19   -0.60024      1.99934     4.59248    0.00842     6.60024
      H   20    0.20467      0.00000     0.79356    0.00177     0.79533
      H   21    0.21340      0.00000     0.78497    0.00163     0.78660
      H   22    0.21998      0.00000     0.77815    0.00188     0.78002
      C   23   -0.61024      1.99934     4.60044    0.01045     6.61024
      H   24    0.21900      0.00000     0.77914    0.00186     0.78100
      H   25    0.20921      0.00000     0.78904    0.00175     0.79079
      H   26    0.20944      0.00000     0.78871    0.00185     0.79056
      C   27   -0.60635      1.99935     4.59816    0.00884     6.60635
      H   28    0.22355      0.00000     0.77454    0.00191     0.77645
      H   29    0.20294      0.00000     0.79515    0.00191     0.79706
      H   30    0.21690      0.00000     0.78149    0.00161     0.78310
      C   31   -0.24547      1.99938     4.22843    0.01766     6.24547
      C   32   -0.60131      1.99934     4.59347    0.00850     6.60131
      H   33    0.20542      0.00000     0.79277    0.00181     0.79458
      H   34    0.21386      0.00000     0.78450    0.00164     0.78614
      H   35    0.22177      0.00000     0.77637    0.00186     0.77823
      C   36   -0.59407      1.99933     4.58601    0.00873     6.59407
      H   37    0.22050      0.00000     0.77759    0.00190     0.77950
      H   38    0.19786      0.00000     0.80065    0.00149     0.80214
      H   39    0.21705      0.00000     0.78131    0.00164     0.78295
      C   40   -0.61153      1.99934     4.60222    0.00997     6.61153
      H   41    0.20493      0.00000     0.79329    0.00178     0.79507
      H   42    0.22218      0.00000     0.77600    0.00182     0.77782
      H   43    0.21865      0.00000     0.77955    0.00180     0.78135
      C   44   -0.23756      1.99938     4.22045    0.01772     6.23756
      C   45   -0.60078      1.99935     4.59244    0.00899     6.60078
      H   46    0.22036      0.00000     0.77769    0.00196     0.77964
      H   47    0.21887      0.00000     0.77922    0.00191     0.78113
      H   48    0.20084      0.00000     0.79728    0.00188     0.79916
      C   49   -0.61168      1.99934     4.60183    0.01051     6.61168
      H   50    0.21858      0.00000     0.77954    0.00187     0.78142
      H   51    0.20849      0.00000     0.78971    0.00180     0.79151
      H   52    0.21350      0.00000     0.78486    0.00164     0.78650
      C   53   -0.59937      1.99934     4.59145    0.00858     6.59937
      H   54    0.20697      0.00000     0.79131    0.00172     0.79303
      H   55    0.20560      0.00000     0.79293    0.00147     0.79440
      H   56    0.22065      0.00000     0.77740    0.00196     0.77935
     Rh   57   -0.30739     35.98614     9.29188    0.02938    45.30739
      C   58   -0.16537      1.99910     4.14677    0.01951     6.16537
      C   59   -0.19064      1.99910     4.17162    0.01992     6.19064
      C   60   -0.16296      1.99909     4.14430    0.01957     6.16296
      C   61   -0.19151      1.99910     4.17238    0.02003     6.19151
      H   62    0.21779      0.00000     0.77978    0.00243     0.78221
      C   63   -0.42328      1.99935     4.41192    0.01201     6.42328
      H   64    0.21747      0.00000     0.78012    0.00242     0.78253
      C   65   -0.41342      1.99934     4.40138    0.01270     6.41342
      C   66   -0.42368      1.99935     4.41229    0.01204     6.42368
      H   67    0.21702      0.00000     0.78055    0.00243     0.78298
      H   68    0.21815      0.00000     0.77950    0.00235     0.78185
      C   69   -0.41383      1.99934     4.40182    0.01267     6.41383
      H   70    0.21661      0.00000     0.78144    0.00195     0.78339
      H   71    0.22825      0.00000     0.77025    0.00150     0.77175
      H   72    0.23131      0.00000     0.76674    0.00195     0.76869
      H   73    0.21410      0.00000     0.78397    0.00192     0.78590
      H   74    0.22834      0.00000     0.77015    0.00151     0.77166
      H   75    0.21661      0.00000     0.78144    0.00195     0.78339
      H   76    0.23139      0.00000     0.76666    0.00195     0.76861
      H   77    0.21485      0.00000     0.78326    0.00189     0.78515
      C   78   -0.08405      1.99893     4.05860    0.02651     6.08405
      C   79   -0.20804      1.99910     4.19252    0.01642     6.20804
      C   80   -0.00818      1.99904     3.99323    0.01591     6.00818
      C   81   -0.20367      1.99917     4.18930    0.01520     6.20367
      H   82    0.19775      0.00000     0.79924    0.00300     0.80225
      C   83   -0.19046      1.99913     4.17689    0.01443     6.19046
      C   84   -0.18015      1.99918     4.16596    0.01501     6.18015
      H   85    0.21962      0.00000     0.77903    0.00136     0.78038
      H   86    0.21418      0.00000     0.78427    0.00155     0.78582
      H   87    0.22238      0.00000     0.77651    0.00111     0.77762
      C   88   -0.62537      1.99938     4.61719    0.00879     6.62537
      H   89    0.20213      0.00000     0.79610    0.00177     0.79787
      H   90    0.23036      0.00000     0.76834    0.00130     0.76964
      H   91    0.22081      0.00000     0.77753    0.00166     0.77919
 =======================================================================
   * Total *    1.00000    119.95635   201.37347    0.67018   322.00000

 Normal termination of Gaussian 16 at Wed Jan 22 02:56:24 2025.
