 Gaussian 16, Revision B.01,
 Gaussian 16:  ES64L-G16RevB.01 20-Dec-2017

 ------------------------------------------
 # nmr=giao b3lyp/genecp pop=nbo scfcyc=200
 ------------------------------------------

 ---------
 MS-17_SPE
 ---------
 Symbolic Z-matrix:
 Charge =  1 Multiplicity = 1

                         Standard orientation:
 ---------------------------------------------------------------------
 Center     Atomic      Atomic             Coordinates (Angstroms)
 Number     Number       Type             X           Y           Z
 ---------------------------------------------------------------------
      1          8           0        0.625451   -3.226218   -2.744950
      2         15           0       -1.390408   -0.442484   -0.093540
      3         15           0        1.390111   -0.151985   -0.033370
      4          6           0       -2.666807   -0.594778   -1.414810
      5          6           0       -2.442535   -1.251818   -2.627130
      6          1           0       -1.505474   -1.752695   -2.833960
      7          6           0       -3.444145   -1.289101   -3.594780
      8          1           0       -3.261293   -1.807010   -4.527860
      9          6           0       -4.667767   -0.672105   -3.366220
     10          1           0       -5.442157   -0.703588   -4.122170
     11          6           0       -4.897589   -0.017576   -2.158570
     12          1           0       -5.850981    0.460211   -1.970900
     13          6           0       -3.903909    0.023697   -1.189800
     14          1           0       -4.103601    0.523787   -0.249180
     15          6           0       -2.135025   -1.308347    1.353210
     16          6           0       -2.968651   -2.420619    1.184470
     17          1           0       -3.221020   -2.769060    0.190830
     18          6           0       -3.503949   -3.067881    2.291880
     19          1           0       -4.151236   -3.924563    2.151680
     20          6           0       -3.219101   -2.610520    3.575590
     21          1           0       -3.642999   -3.112992    4.435910
     22          6           0       -2.401174   -1.499588    3.750550
     23          1           0       -2.188726   -1.133107    4.747050
     24          6           0       -1.864457   -0.848866    2.644550
     25          1           0       -1.239539    0.024316    2.781360
     26          6           0        0.126745   -1.412629   -0.656630
     27          1           0        0.131075   -1.269759   -1.739970
     28          6           0        0.257820   -2.908219   -0.380540
     29          1           0        0.909471   -3.104657    0.472460
     30          1           0       -0.715488   -3.326872   -0.107870
     31          6           0        0.731573   -3.681747   -1.616370
     32          6           0        2.758471   -0.010740   -1.261520
     33          6           0        2.685852   -0.531151   -2.555420
     34          1           0        1.842664   -1.127934   -2.876060
     35          6           0        3.730512   -0.317287   -3.451680
     36          1           0        3.667973   -0.735987   -4.448210
     37          6           0        4.845479    0.419666   -3.071970
     38          1           0        5.654179    0.582949   -3.773040
     39          6           0        4.922618    0.942017   -1.783400
     40          1           0        5.791036    1.511920   -1.477560
     41          6           0        3.885988    0.731473   -0.883820
     42          1           0        3.967637    1.132254    0.119780
     43          6           0        2.210623   -0.838382    1.466440
     44          6           0        3.163047   -1.860259    1.363570
     45          1           0        3.450278   -2.243728    0.392240
     46          6           0        3.770189   -2.367977    2.505670
     47          1           0        4.509691   -3.154045    2.416900
     48          6           0        3.439747   -1.858898    3.759280
     49          1           0        3.919878   -2.251767    4.646670
     50          6           0        2.504463   -0.836201    3.868220
     51          1           0        2.256642   -0.428132    4.840100
     52          6           0        1.893592   -0.326483    2.726560
     53          1           0        1.176929    0.480914    2.809720
     54         45           0       -0.203365    1.565300    0.221470
     55          6           0        1.044240    3.334424    0.949120
     56          6           0        1.098510    3.287444   -0.428150
     57          6           0       -1.814770    3.102114   -0.296570
     58          6           0       -1.843009    2.868184    1.061510
     59          6           0        0.186506    4.282201    1.767650
     60          1           0        1.859861    2.862337    1.486930
     61          1           0        1.962351    2.807357   -0.874940
     62          6           0        0.271977    4.095791   -1.397150
     63          6           0       -1.194774    4.311936   -0.969290
     64          1           0       -2.498638    2.528422   -0.911830
     65          6           0       -1.201272    3.711866    2.136070
     66          1           0       -2.578446    2.159452    1.429460
     67          1           0        0.717016    4.518953    2.691470
     68          1           0        0.078013    5.227321    1.236150
     69          1           0        0.754684    5.065813   -1.570890
     70          1           0        0.291529    3.577541   -2.358100
     71          1           0       -1.277326    5.178556   -0.313820
     72          1           0       -1.781404    4.550174   -1.858030
     73          1           0       -1.106690    3.093057    3.031390
     74          1           0       -1.875144    4.531944    2.413850
     75          7           0        1.242657   -4.910225   -1.370190
     76          1           0        1.300908   -5.295105   -0.442760
     77          1           0        1.497879   -5.494255   -2.151570
 ---------------------------------------------------------------------

 SCF Done:  E(RB3LYP) =  -2279.70375898     A.U. after   16 cycles

      1  O    Isotropic =   -72.8600   Anisotropy =   606.6661

      2  P    Isotropic =   296.0542   Anisotropy =    57.0413

      3  P    Isotropic =   287.2941   Anisotropy =    56.5656

      4  C    Isotropic =    45.6260   Anisotropy =   167.0020

      5  C    Isotropic =    48.5839   Anisotropy =   191.6562

      6  H    Isotropic =    23.1445   Anisotropy =    11.0067

      7  C    Isotropic =    48.1724   Anisotropy =   190.8929

      8  H    Isotropic =    23.9273   Anisotropy =     6.7573

      9  C    Isotropic =    46.2778   Anisotropy =   195.5535

     10  H    Isotropic =    24.0466   Anisotropy =     3.6429

     11  C    Isotropic =    48.2346   Anisotropy =   190.6922

     12  H    Isotropic =    24.2533   Anisotropy =     6.7465

     13  C    Isotropic =    47.4767   Anisotropy =   185.0830

     14  H    Isotropic =    24.9723   Anisotropy =    11.2888

     15  C    Isotropic =    44.9772   Anisotropy =   172.3754

     16  C    Isotropic =    44.0660   Anisotropy =   191.5437

     17  H    Isotropic =    25.0189   Anisotropy =    11.6391

     18  C    Isotropic =    49.2915   Anisotropy =   188.5390

     19  H    Isotropic =    24.4453   Anisotropy =     6.3444

     20  C    Isotropic =    45.4092   Anisotropy =   197.5198

     21  H    Isotropic =    24.1535   Anisotropy =     4.0620

     22  C    Isotropic =    49.7925   Anisotropy =   186.9249

     23  H    Isotropic =    24.1790   Anisotropy =     7.2293

     24  C    Isotropic =    41.8117   Anisotropy =   179.5212

     25  H    Isotropic =    23.3042   Anisotropy =     9.6169

     26  C    Isotropic =   131.4766   Anisotropy =    58.4188

     27  H    Isotropic =    25.5185   Anisotropy =     7.7311

     28  C    Isotropic =   148.3698   Anisotropy =    46.1966

     29  H    Isotropic =    30.1061   Anisotropy =     4.8969

     30  H    Isotropic =    29.7920   Anisotropy =     6.2074

     31  C    Isotropic =     9.2553   Anisotropy =   127.3291

     32  C    Isotropic =    45.0841   Anisotropy =   167.0375

     33  C    Isotropic =    47.6600   Anisotropy =   193.7037

     34  H    Isotropic =    23.2037   Anisotropy =    10.1328

     35  C    Isotropic =    48.5704   Anisotropy =   190.3560

     36  H    Isotropic =    23.9876   Anisotropy =     6.7660

     37  C    Isotropic =    46.6828   Anisotropy =   195.5043

     38  H    Isotropic =    24.1044   Anisotropy =     3.5807

     39  C    Isotropic =    48.6653   Anisotropy =   190.0328

     40  H    Isotropic =    24.3274   Anisotropy =     6.6830

     41  C    Isotropic =    47.9882   Anisotropy =   186.7621

     42  H    Isotropic =    25.0914   Anisotropy =    11.4722

     43  C    Isotropic =    46.0619   Anisotropy =   173.1646

     44  C    Isotropic =    43.7165   Anisotropy =   191.2589

     45  H    Isotropic =    24.9449   Anisotropy =    10.8944

     46  C    Isotropic =    49.5264   Anisotropy =   188.0078

     47  H    Isotropic =    24.4049   Anisotropy =     6.2706

     48  C    Isotropic =    45.1196   Anisotropy =   198.1420

     49  H    Isotropic =    24.0759   Anisotropy =     3.9328

     50  C    Isotropic =    49.4611   Anisotropy =   187.2562

     51  H    Isotropic =    24.0436   Anisotropy =     7.0654

     52  C    Isotropic =    40.3658   Anisotropy =   179.4773

     53  H    Isotropic =    23.0857   Anisotropy =    10.0386

     54  Rh   Isotropic =  -296.8702   Anisotropy =   333.2186

     55  C    Isotropic =    81.0986   Anisotropy =   118.3094

     56  C    Isotropic =    70.3117   Anisotropy =   127.6243

     57  C    Isotropic =    73.3019   Anisotropy =   130.5518

     58  C    Isotropic =    78.8459   Anisotropy =   114.3603

     59  C    Isotropic =   153.8623   Anisotropy =    25.3505

     60  H    Isotropic =    26.7785   Anisotropy =     6.6300

     61  H    Isotropic =    26.8530   Anisotropy =     5.4685

     62  C    Isotropic =   148.2829   Anisotropy =    29.1786

     63  C    Isotropic =   153.9725   Anisotropy =    25.0532

     64  H    Isotropic =    27.0155   Anisotropy =     6.6610

     65  C    Isotropic =   147.6726   Anisotropy =    29.2154

     66  H    Isotropic =    26.1810   Anisotropy =     4.2893

     67  H    Isotropic =    29.6967   Anisotropy =    11.6364

     68  H    Isotropic =    29.6835   Anisotropy =     9.6949

     69  H    Isotropic =    29.4168   Anisotropy =    12.5041

     70  H    Isotropic =    29.4980   Anisotropy =     6.6659

     71  H    Isotropic =    29.8514   Anisotropy =     9.6268

     72  H    Isotropic =    30.0656   Anisotropy =    11.1633

     73  H    Isotropic =    28.8611   Anisotropy =     8.0938

     74  H    Isotropic =    28.9688   Anisotropy =    12.7506

     75  N    Isotropic =   149.2386   Anisotropy =   136.7703

     76  H    Isotropic =    27.4995   Anisotropy =     9.0423

     77  H    Isotropic =    27.1060   Anisotropy =    14.1853

 The electronic state is 1-A.
 Alpha  occ. eigenvalues --  -77.23615 -77.23564 -19.19639 -14.44009 -10.38142
 Alpha  occ. eigenvalues --  -10.30952 -10.29659 -10.29600 -10.29545 -10.29259
 Alpha  occ. eigenvalues --  -10.29179 -10.28857 -10.28754 -10.28680 -10.28616
 Alpha  occ. eigenvalues --  -10.28547 -10.28544 -10.28391 -10.28340 -10.27932
 Alpha  occ. eigenvalues --  -10.27926 -10.27837 -10.27817 -10.27815 -10.27740
 Alpha  occ. eigenvalues --  -10.27665 -10.27639 -10.27619 -10.27460 -10.27440
 Alpha  occ. eigenvalues --  -10.27160 -10.27158 -10.27122 -10.27053 -10.27025
 Alpha  occ. eigenvalues --  -10.26968 -10.26954 -10.26915 -10.26828  -6.69571
 Alpha  occ. eigenvalues --   -6.69529  -4.85853  -4.85811  -4.85794  -4.85750
 Alpha  occ. eigenvalues --   -4.85477  -4.85436  -3.31318  -2.08220  -2.07561
 Alpha  occ. eigenvalues --   -2.04772  -1.14594  -1.01304  -0.96887  -0.96642
 Alpha  occ. eigenvalues --   -0.95826  -0.95744  -0.94210  -0.91373  -0.88939
 Alpha  occ. eigenvalues --   -0.87775  -0.87203  -0.86556  -0.85549  -0.85353
 Alpha  occ. eigenvalues --   -0.84845  -0.84777  -0.84696  -0.84598  -0.80736
 Alpha  occ. eigenvalues --   -0.80042  -0.77587  -0.75542  -0.73101  -0.71444
 Alpha  occ. eigenvalues --   -0.71207  -0.70626  -0.70450  -0.70305  -0.70186
 Alpha  occ. eigenvalues --   -0.70074  -0.69187  -0.66925  -0.65865  -0.65611
 Alpha  occ. eigenvalues --   -0.64577  -0.62432  -0.62190  -0.62016  -0.61536
 Alpha  occ. eigenvalues --   -0.60190  -0.59765  -0.58685  -0.57391  -0.56770
 Alpha  occ. eigenvalues --   -0.56451  -0.56198  -0.56052  -0.55898  -0.55560
 Alpha  occ. eigenvalues --   -0.55313  -0.55295  -0.54736  -0.54289  -0.54033
 Alpha  occ. eigenvalues --   -0.53408  -0.53104  -0.53050  -0.52629  -0.52370
 Alpha  occ. eigenvalues --   -0.52239  -0.52081  -0.51920  -0.51238  -0.50960
 Alpha  occ. eigenvalues --   -0.49781  -0.48577  -0.48426  -0.47962  -0.47903
 Alpha  occ. eigenvalues --   -0.47669  -0.47289  -0.46950  -0.46920  -0.45931
 Alpha  occ. eigenvalues --   -0.45746  -0.45455  -0.45407  -0.45040  -0.44578
 Alpha  occ. eigenvalues --   -0.44419  -0.43534  -0.43461  -0.43131  -0.42856
 Alpha  occ. eigenvalues --   -0.42484  -0.42339  -0.41200  -0.37940  -0.37933
 Alpha  occ. eigenvalues --   -0.37355  -0.37103  -0.36597  -0.36446  -0.36380
 Alpha  occ. eigenvalues --   -0.35916  -0.35571  -0.35387  -0.35242  -0.34583
 Alpha  occ. eigenvalues --   -0.34314  -0.34140  -0.33605  -0.30496
 Alpha virt. eigenvalues --   -0.16210  -0.14591  -0.13921  -0.13180  -0.12572
 Alpha virt. eigenvalues --   -0.11884  -0.11635  -0.10881  -0.10781  -0.10284
 Alpha virt. eigenvalues --   -0.09070  -0.08600  -0.07598  -0.07038  -0.06127

 Mulliken charges:
               1
     1  O   -0.371360
     2  P    0.358557
     3  P    0.401385
     4  C   -0.172542
     5  C   -0.030122
     6  H    0.177934
     7  C   -0.137532
     8  H    0.134488
     9  C   -0.081019
    10  H    0.137852
    11  C   -0.096941
    12  H    0.131893
    13  C   -0.112030
    14  H    0.157325
    15  C   -0.245572
    16  C   -0.064044
    17  H    0.167395
    18  C   -0.097633
    19  H    0.135829
    20  C   -0.087606
    21  H    0.139605
    22  C   -0.117977
    23  H    0.128055
    24  C   -0.007237
    25  H    0.141272
    26  C   -0.563085
    27  H    0.219702
    28  C   -0.251092
    29  H    0.182342
    30  H    0.207850
    31  C    0.252223
    32  C   -0.161642
    33  C   -0.045429
    34  H    0.167011
    35  C   -0.140378
    36  H    0.134414
    37  C   -0.090011
    38  H    0.137133
    39  C   -0.087847
    40  H    0.132188
    41  C   -0.093493
    42  H    0.153264
    43  C   -0.293410
    44  C   -0.051159
    45  H    0.162177
    46  C   -0.091362
    47  H    0.135300
    48  C   -0.084778
    49  H    0.140117
    50  C   -0.122306
    51  H    0.129123
    52  C   -0.027910
    53  H    0.169720
    54  Rh  -0.657891
    55  C   -0.026181
    56  C   -0.105852
    57  C   -0.031752
    58  C   -0.095210
    59  C   -0.349854
    60  H    0.183700
    61  H    0.225222
    62  C   -0.225049
    63  C   -0.349208
    64  H    0.212477
    65  C   -0.228571
    66  H    0.190215
    67  H    0.167914
    68  H    0.169353
    69  H    0.170464
    70  H    0.138278
    71  H    0.166062
    72  H    0.170078
    73  H    0.130564
    74  H    0.172243
    75  N   -0.355446
    76  H    0.255282
    77  H    0.264522
 Sum of Mulliken charges =   1.00000

 Dipole moment (field-independent basis, Debye):
    X=              0.4109    Y=             -1.8630    Z=              2.5742  Tot=              3.2041
 Quadrupole moment (field-independent basis, Debye-Ang):
   XX=           -209.0637   YY=           -200.2847   ZZ=           -224.1952
   XY=             -4.6660   XZ=              1.6487   YZ=             -3.7836

 Summary of Natural Population Analysis:

                                       Natural Population
                Natural  -----------------------------------------------
    Atom  No    Charge         Core      Valence    Rydberg      Total
 -----------------------------------------------------------------------
      O    1   -0.61234      1.99975     6.60018    0.01240     8.61234
      P    2    1.13500      9.99637     3.81706    0.05157    13.86500
      P    3    1.13271      9.99637     3.81931    0.05161    13.86729
      C    4   -0.34066      1.99900     4.31848    0.02318     6.34066
      C    5   -0.20369      1.99909     4.18915    0.01545     6.20369
      H    6    0.23019      0.00000     0.76773    0.00207     0.76981
      C    7   -0.18683      1.99920     4.17302    0.01461     6.18683
      H    8    0.22354      0.00000     0.77524    0.00121     0.77646
      C    9   -0.18146      1.99920     4.16766    0.01459     6.18146
      H   10    0.22258      0.00000     0.77624    0.00118     0.77742
      C   11   -0.19135      1.99919     4.17754    0.01462     6.19135
      H   12    0.22201      0.00000     0.77676    0.00123     0.77799
      C   13   -0.20068      1.99909     4.18618    0.01541     6.20068
      H   14    0.21389      0.00000     0.78429    0.00182     0.78611
      C   15   -0.34895      1.99899     4.32605    0.02391     6.34895
      C   16   -0.19470      1.99910     4.17970    0.01590     6.19470
      H   17    0.22226      0.00000     0.77584    0.00190     0.77774
      C   18   -0.19355      1.99920     4.17971    0.01465     6.19355
      H   19    0.22315      0.00000     0.77562    0.00122     0.77685
      C   20   -0.17510      1.99921     4.16137    0.01452     6.17510
      H   21    0.22281      0.00000     0.77602    0.00118     0.77719
      C   22   -0.19625      1.99919     4.18255    0.01451     6.19625
      H   23    0.22021      0.00000     0.77854    0.00125     0.77979
      C   24   -0.18392      1.99909     4.16928    0.01555     6.18392
      H   25    0.21754      0.00000     0.78022    0.00224     0.78246
      C   26   -0.76421      1.99938     4.73959    0.02524     6.76421
      H   27    0.28787      0.00000     0.70874    0.00339     0.71213
      C   28   -0.51963      1.99924     4.50540    0.01498     6.51963
      H   29    0.23383      0.00000     0.76353    0.00264     0.76617
      H   30    0.24683      0.00000     0.75063    0.00255     0.75317
      C   31    0.64295      1.99949     3.31999    0.03757     5.35705
      C   32   -0.34286      1.99899     4.32087    0.02300     6.34286
      C   33   -0.20061      1.99909     4.18601    0.01552     6.20061
      H   34    0.23312      0.00000     0.76479    0.00209     0.76688
      C   35   -0.18708      1.99920     4.17329    0.01459     6.18708
      H   36    0.22320      0.00000     0.77559    0.00121     0.77680
      C   37   -0.18206      1.99920     4.16824    0.01462     6.18206
      H   38    0.22218      0.00000     0.77665    0.00118     0.77782
      C   39   -0.19230      1.99919     4.17840    0.01471     6.19230
      H   40    0.22180      0.00000     0.77696    0.00123     0.77820
      C   41   -0.20343      1.99909     4.18907    0.01527     6.20343
      H   42    0.21582      0.00000     0.78241    0.00177     0.78418
      C   43   -0.34981      1.99899     4.32651    0.02431     6.34981
      C   44   -0.19493      1.99910     4.17984    0.01599     6.19493
      H   45    0.22113      0.00000     0.77686    0.00201     0.77887
      C   46   -0.19544      1.99920     4.18161    0.01464     6.19544
      H   47    0.22257      0.00000     0.77620    0.00123     0.77743
      C   48   -0.17447      1.99921     4.16073    0.01453     6.17447
      H   49    0.22309      0.00000     0.77574    0.00117     0.77691
      C   50   -0.19683      1.99919     4.18311    0.01453     6.19683
      H   51    0.22067      0.00000     0.77809    0.00124     0.77933
      C   52   -0.18262      1.99909     4.16794    0.01558     6.18262
      H   53    0.21896      0.00000     0.77901    0.00202     0.78104
     Rh   54   -0.40059     35.98570     9.38664    0.02825    45.40059
      C   55   -0.18269      1.99907     4.16427    0.01936     6.18269
      C   56   -0.15250      1.99909     4.13325    0.02015     6.15250
      C   57   -0.16295      1.99906     4.14456    0.01933     6.16295
      C   58   -0.17022      1.99907     4.15116    0.01998     6.17022
      C   59   -0.42298      1.99936     4.41181    0.01181     6.42298
      H   60    0.22468      0.00000     0.77342    0.00189     0.77532
      H   61    0.23311      0.00000     0.76455    0.00234     0.76689
      C   62   -0.41939      1.99935     4.40710    0.01294     6.41939
      C   63   -0.42368      1.99936     4.41251    0.01181     6.42368
      H   64    0.23118      0.00000     0.76650    0.00232     0.76882
      C   65   -0.41751      1.99935     4.40545    0.01271     6.41751
      H   66    0.22551      0.00000     0.77260    0.00189     0.77449
      H   67    0.22741      0.00000     0.77111    0.00149     0.77259
      H   68    0.21538      0.00000     0.78265    0.00197     0.78462
      H   69    0.23360      0.00000     0.76453    0.00187     0.76640
      H   70    0.22056      0.00000     0.77798    0.00146     0.77944
      H   71    0.21345      0.00000     0.78456    0.00199     0.78655
      H   72    0.22978      0.00000     0.76873    0.00149     0.77022
      H   73    0.21214      0.00000     0.78630    0.00156     0.78786
      H   74    0.23363      0.00000     0.76445    0.00192     0.76637
      N   75   -0.77520      1.99948     5.76419    0.01153     7.77520
      H   76    0.39441      0.00000     0.60391    0.00168     0.60559
      H   77    0.40872      0.00000     0.58915    0.00213     0.59128
 =======================================================================
   * Total *    1.00000    129.94859   205.23095    0.82046   336.00000

 Normal termination of Gaussian 16 at Wed Jan 22 03:24:56 2025.
