 Gaussian 16, Revision B.01,
 Gaussian 16:  ES64L-G16RevB.01 20-Dec-2017

 ------------------------------------------
 # nmr=giao b3lyp/genecp pop=nbo scfcyc=200
 ------------------------------------------

 ---------
 MS-23_SPE
 ---------
 Symbolic Z-matrix:
 Charge =  1 Multiplicity = 1

                         Standard orientation:
 ---------------------------------------------------------------------
 Center     Atomic      Atomic             Coordinates (Angstroms)
 Number     Number       Type             X           Y           Z
 ---------------------------------------------------------------------
      1         15           0       -0.746600   -1.058411    0.144050
      2         15           0        0.837829    1.258020    0.216680
      3          6           0       -0.829550   -1.898911    1.777790
      4          6           0        0.313540   -2.547950    2.256380
      5          1           0        1.221410   -2.536760    1.666930
      6          6           0        0.292161   -3.194940    3.487330
      7          1           0        1.181421   -3.697070    3.847190
      8          6           0       -0.869739   -3.196411    4.251420
      9          1           0       -0.888369   -3.701961    5.208880
     10          6           0       -2.009940   -2.548091    3.783990
     11          1           0       -2.915670   -2.544512    4.377340
     12          6           0       -1.997620   -1.901771    2.552930
     13          1           0       -2.893910   -1.400462    2.210300
     14          6           0       -2.161970   -1.691871   -0.853890
     15          6           0       -2.780129   -2.907602   -0.549750
     16          1           0       -2.489599   -3.465131    0.330050
     17          6           0       -3.785879   -3.407502   -1.371500
     18          1           0       -4.261769   -4.347122   -1.120710
     19          6           0       -4.181359   -2.705072   -2.503490
     20          1           0       -4.966259   -3.095122   -3.138960
     21          6           0       -3.559930   -1.500322   -2.820840
     22          1           0       -3.856910   -0.952062   -3.706200
     23          6           0       -2.550650   -1.000511   -2.007630
     24          1           0       -2.066800   -0.071691   -2.285320
     25          6           0       -0.995021    0.802339    0.397930
     26          1           0       -1.363841    1.139819   -0.574900
     27          6           0       -1.890741    1.410569    1.483130
     28          1           0       -1.733671    0.939649    2.449830
     29          1           0       -1.651731    2.472369    1.575510
     30          6           0       -3.368381    1.285778    1.142460
     31          6           0       -5.123391    2.149138   -0.222980
     32          1           0       -5.749381    2.272727    0.660900
     33          1           0       -5.334111    1.168538   -0.651830
     34          6           0       -5.317052    3.266608   -1.221060
     35          1           0       -5.095252    4.236188   -0.773730
     36          1           0       -6.355722    3.276477   -1.556580
     37          1           0       -4.678332    3.132518   -2.095280
     38          6           0        1.606639    1.648530    1.842790
     39          6           0        1.183959    1.042400    3.029440
     40          1           0        0.337279    0.371020    3.037550
     41          6           0        1.859419    1.283530    4.221150
     42          1           0        1.513909    0.815250    5.134160
     43          6           0        2.971599    2.117681    4.241400
     44          1           0        3.494819    2.304161    5.170620
     45          6           0        3.410709    2.709751    3.061400
     46          1           0        4.278468    3.357341    3.067330
     47          6           0        2.736719    2.476330    1.868650
     48          1           0        3.089089    2.952041    0.962160
     49          6           0        0.802289    2.847050   -0.716000
     50          6           0        0.601228    4.075450   -0.076140
     51          1           0        0.543598    4.128990    1.003210
     52          6           0        0.487788    5.241700   -0.823800
     53          1           0        0.335267    6.188000   -0.320150
     54          6           0        0.570738    5.195470   -2.212460
     55          1           0        0.486037    6.106890   -2.790700
     56          6           0        0.764218    3.977690   -2.855450
     57          1           0        0.830758    3.937680   -3.935480
     58          6           0        0.879439    2.808010   -2.111510
     59          1           0        1.026839    1.860880   -2.615560
     60          8           0       -3.727241    2.169248    0.201510
     61          8           0       -4.119391    0.484598    1.644920
     62         45           0        1.402750   -0.796560   -0.789960
     63          6           0        1.943581   -2.966300   -1.271850
     64          6           0        1.303600   -2.405490   -2.357550
     65          6           0        3.222560   -0.214049   -2.062130
     66          6           0        3.650180   -0.631469   -0.820370
     67          6           0        3.440331   -3.175299   -1.136250
     68          1           0        1.328301   -3.546050   -0.592450
     69          1           0        0.241511   -2.602840   -2.461290
     70          6           0        1.952890   -1.831510   -3.592740
     71          6           0        3.254140   -1.041579   -3.333690
     72          1           0        3.111369    0.854841   -2.203010
     73          6           0        4.170680   -1.998929   -0.452550
     74          1           0        3.859270    0.138001   -0.083690
     75          1           0        3.612491   -4.076789   -0.545870
     76          1           0        3.873841   -3.374149   -2.116090
     77          1           0        2.145571   -2.637340   -4.312250
     78          1           0        1.224770   -1.174460   -4.073500
     79          1           0        4.110160   -1.715559   -3.311530
     80          1           0        3.424460   -0.372019   -4.178510
     81          1           0        4.084590   -2.104309    0.631210
     82          1           0        5.244650   -2.052319   -0.671100
 ---------------------------------------------------------------------

 SCF Done:  E(RB3LYP) =  -2378.22033729     A.U. after   16 cycles

      1  P    Isotropic =   288.8757   Anisotropy =    69.8813

      2  P    Isotropic =   286.7305   Anisotropy =    92.3030

      3  C    Isotropic =    52.4594   Anisotropy =   162.3203

      4  C    Isotropic =    39.4692   Anisotropy =   181.3536

      5  H    Isotropic =    23.2152   Anisotropy =     9.8645

      6  C    Isotropic =    49.1714   Anisotropy =   188.2870

      7  H    Isotropic =    23.9794   Anisotropy =     6.8915

      8  C    Isotropic =    43.9115   Anisotropy =   200.3813

      9  H    Isotropic =    23.7278   Anisotropy =     3.5548

     10  C    Isotropic =    47.9189   Anisotropy =   191.3010

     11  H    Isotropic =    23.7614   Anisotropy =     6.2407

     12  C    Isotropic =    39.8996   Anisotropy =   201.5836

     13  H    Isotropic =    22.8339   Anisotropy =     9.4520

     14  C    Isotropic =    44.8444   Anisotropy =   168.6002

     15  C    Isotropic =    46.7542   Anisotropy =   191.7781

     16  H    Isotropic =    24.8337   Anisotropy =    12.6884

     17  C    Isotropic =    48.5162   Anisotropy =   190.5139

     18  H    Isotropic =    24.3259   Anisotropy =     6.3616

     19  C    Isotropic =    46.7254   Anisotropy =   196.0906

     20  H    Isotropic =    24.1445   Anisotropy =     3.8097

     21  C    Isotropic =    49.4904   Anisotropy =   188.7769

     22  H    Isotropic =    24.1327   Anisotropy =     6.7149

     23  C    Isotropic =    50.0315   Anisotropy =   188.0789

     24  H    Isotropic =    24.1343   Anisotropy =     9.8960

     25  C    Isotropic =   110.8174   Anisotropy =    43.4817

     26  H    Isotropic =    27.4205   Anisotropy =     3.8382

     27  C    Isotropic =   147.1918   Anisotropy =    33.5562

     28  H    Isotropic =    29.0389   Anisotropy =     3.0348

     29  H    Isotropic =    29.5519   Anisotropy =     5.2343

     30  C    Isotropic =     6.5769   Anisotropy =    99.8612

     31  C    Isotropic =   117.0616   Anisotropy =    67.6689

     32  H    Isotropic =    28.1259   Anisotropy =     7.9459

     33  H    Isotropic =    28.6845   Anisotropy =     4.4042

     34  C    Isotropic =   170.6398   Anisotropy =    22.5842

     35  H    Isotropic =    30.8518   Anisotropy =     7.9514

     36  H    Isotropic =    30.9282   Anisotropy =    11.3703

     37  H    Isotropic =    30.9657   Anisotropy =     5.5145

     38  C    Isotropic =    47.9605   Anisotropy =   162.7526

     39  C    Isotropic =    47.5801   Anisotropy =   186.5522

     40  H    Isotropic =    25.4237   Anisotropy =     7.1597

     41  C    Isotropic =    49.5868   Anisotropy =   188.9484

     42  H    Isotropic =    24.6448   Anisotropy =     8.2918

     43  C    Isotropic =    46.6914   Anisotropy =   195.8584

     44  H    Isotropic =    24.1991   Anisotropy =     4.0493

     45  C    Isotropic =    48.5370   Anisotropy =   190.7788

     46  H    Isotropic =    24.2761   Anisotropy =     6.0874

     47  C    Isotropic =    47.2041   Anisotropy =   189.0766

     48  H    Isotropic =    24.7594   Anisotropy =    11.6271

     49  C    Isotropic =    44.5073   Anisotropy =   176.4301

     50  C    Isotropic =    46.0896   Anisotropy =   189.4476

     51  H    Isotropic =    24.4098   Anisotropy =    11.8388

     52  C    Isotropic =    48.3650   Anisotropy =   190.2778

     53  H    Isotropic =    24.1450   Anisotropy =     6.1994

     54  C    Isotropic =    44.5300   Anisotropy =   198.5721

     55  H    Isotropic =    23.8720   Anisotropy =     3.7487

     56  C    Isotropic =    48.4069   Anisotropy =   189.1607

     57  H    Isotropic =    23.8762   Anisotropy =     6.8933

     58  C    Isotropic =    44.1538   Anisotropy =   179.0732

     59  H    Isotropic =    23.3236   Anisotropy =    10.1598

     60  O    Isotropic =    97.7487   Anisotropy =   165.8973

     61  O    Isotropic =  -116.3673   Anisotropy =   607.4360

     62  Rh   Isotropic =  -303.7131   Anisotropy =   333.1450

     63  C    Isotropic =    80.3765   Anisotropy =   119.2692

     64  C    Isotropic =    72.9215   Anisotropy =   122.3734

     65  C    Isotropic =    78.4891   Anisotropy =   121.6864

     66  C    Isotropic =    73.7774   Anisotropy =   121.4854

     67  C    Isotropic =   154.0482   Anisotropy =    24.9078

     68  H    Isotropic =    27.1019   Anisotropy =     6.1413

     69  H    Isotropic =    27.0358   Anisotropy =     3.8229

     70  C    Isotropic =   147.7675   Anisotropy =    29.3966

     71  C    Isotropic =   153.9396   Anisotropy =    25.0347

     72  H    Isotropic =    26.7569   Anisotropy =     6.0618

     73  C    Isotropic =   147.9013   Anisotropy =    28.8123

     74  H    Isotropic =    26.6765   Anisotropy =     4.1344

     75  H    Isotropic =    29.8374   Anisotropy =    11.6000

     76  H    Isotropic =    29.7756   Anisotropy =     9.9205

     77  H    Isotropic =    29.1989   Anisotropy =    12.5512

     78  H    Isotropic =    29.0383   Anisotropy =     7.3258

     79  H    Isotropic =    29.7069   Anisotropy =     9.8208

     80  H    Isotropic =    29.7129   Anisotropy =    11.5664

     81  H    Isotropic =    29.3073   Anisotropy =     7.2744

     82  H    Isotropic =    29.2220   Anisotropy =    12.7773

 The electronic state is 1-A.
 Alpha  occ. eigenvalues --  -77.23986 -77.23823 -19.26211 -19.20684 -10.39571
 Alpha  occ. eigenvalues --  -10.31797 -10.31208 -10.29822 -10.29752 -10.29591
 Alpha  occ. eigenvalues --  -10.29508 -10.29422 -10.29104 -10.29040 -10.28832
 Alpha  occ. eigenvalues --  -10.28749 -10.28528 -10.28435 -10.28362 -10.28297
 Alpha  occ. eigenvalues --  -10.28274 -10.28256 -10.27951 -10.27799 -10.27780
 Alpha  occ. eigenvalues --  -10.27746 -10.27679 -10.27635 -10.27540 -10.27525
 Alpha  occ. eigenvalues --  -10.27523 -10.27521 -10.27505 -10.27488 -10.27422
 Alpha  occ. eigenvalues --  -10.27351 -10.27324 -10.27313 -10.27280 -10.27270
 Alpha  occ. eigenvalues --  -10.24651  -6.69937  -6.69776  -4.86218  -4.86166
 Alpha  occ. eigenvalues --   -4.86051  -4.86000  -4.85835  -4.85687  -3.31536
 Alpha  occ. eigenvalues --   -2.08425  -2.07777  -2.05000  -1.19978  -1.11376
 Alpha  occ. eigenvalues --   -0.96985  -0.96633  -0.96180  -0.95989  -0.94414
 Alpha  occ. eigenvalues --   -0.91905  -0.89148  -0.88007  -0.87606  -0.87307
 Alpha  occ. eigenvalues --   -0.85541  -0.85440  -0.85303  -0.85165  -0.85070
 Alpha  occ. eigenvalues --   -0.84953  -0.84747  -0.80730  -0.80224  -0.77819
 Alpha  occ. eigenvalues --   -0.75774  -0.73473  -0.72021  -0.71410  -0.71097
 Alpha  occ. eigenvalues --   -0.70967  -0.70740  -0.70566  -0.70355  -0.70130
 Alpha  occ. eigenvalues --   -0.67150  -0.66354  -0.65816  -0.65779  -0.62771
 Alpha  occ. eigenvalues --   -0.62448  -0.62110  -0.61212  -0.60686  -0.59974
 Alpha  occ. eigenvalues --   -0.59944  -0.58238  -0.57512  -0.56990  -0.56620
 Alpha  occ. eigenvalues --   -0.56284  -0.56198  -0.56071  -0.55972  -0.55597
 Alpha  occ. eigenvalues --   -0.55584  -0.55245  -0.55068  -0.54448  -0.53653
 Alpha  occ. eigenvalues --   -0.53524  -0.52946  -0.52687  -0.52641  -0.52609
 Alpha  occ. eigenvalues --   -0.52530  -0.52412  -0.51433  -0.51203  -0.50156
 Alpha  occ. eigenvalues --   -0.49612  -0.48926  -0.48628  -0.48368  -0.48129
 Alpha  occ. eigenvalues --   -0.47821  -0.47806  -0.47465  -0.47273  -0.46968
 Alpha  occ. eigenvalues --   -0.46160  -0.46016  -0.45966  -0.45271  -0.45083
 Alpha  occ. eigenvalues --   -0.45007  -0.44833  -0.44639  -0.44284  -0.43775
 Alpha  occ. eigenvalues --   -0.43413  -0.43236  -0.43144  -0.42846  -0.42766
 Alpha  occ. eigenvalues --   -0.41380  -0.39682  -0.38090  -0.37807  -0.37264
 Alpha  occ. eigenvalues --   -0.36870  -0.36425  -0.36106  -0.36049  -0.35813
 Alpha  occ. eigenvalues --   -0.35690  -0.35521  -0.35153  -0.34639  -0.34089
 Alpha  occ. eigenvalues --   -0.33631  -0.30733
 Alpha virt. eigenvalues --   -0.16395  -0.14940  -0.14089  -0.13319  -0.12731
 Alpha virt. eigenvalues --   -0.12267  -0.11751  -0.11067  -0.10723  -0.10371
 Alpha virt. eigenvalues --   -0.09424  -0.09277  -0.07689  -0.06709  -0.06358

 Mulliken charges:
               1
     1  P    0.373614
     2  P    0.429604
     3  C   -0.355563
     4  C    0.013029
     5  H    0.166701
     6  C   -0.129641
     7  H    0.130507
     8  C   -0.078292
     9  H    0.138339
    10  C   -0.121198
    11  H    0.139573
    12  C   -0.061574
    13  H    0.221766
    14  C   -0.146440
    15  C   -0.063241
    16  H    0.165146
    17  C   -0.096937
    18  H    0.135405
    19  C   -0.095372
    20  H    0.137943
    21  C   -0.109214
    22  H    0.129199
    23  C   -0.067293
    24  H    0.132945
    25  C   -0.615381
    26  H    0.241654
    27  C   -0.172335
    28  H    0.171906
    29  H    0.164521
    30  C    0.253172
    31  C   -0.081167
    32  H    0.146448
    33  H    0.137051
    34  C   -0.324071
    35  H    0.130276
    36  H    0.133095
    37  H    0.117387
    38  C   -0.107542
    39  C   -0.064128
    40  H    0.163890
    41  C   -0.138234
    42  H    0.132534
    43  C   -0.090151
    44  H    0.138129
    45  C   -0.093284
    46  H    0.135882
    47  C   -0.123312
    48  H    0.164244
    49  C   -0.235246
    50  C   -0.085870
    51  H    0.163454
    52  C   -0.092215
    53  H    0.136645
    54  C   -0.087447
    55  H    0.139599
    56  C   -0.106872
    57  H    0.130358
    58  C   -0.080322
    59  H    0.181387
    60  O   -0.199671
    61  O   -0.323191
    62  Rh  -0.595067
    63  C   -0.041539
    64  C   -0.089658
    65  C   -0.050912
    66  C   -0.100544
    67  C   -0.358320
    68  H    0.194620
    69  H    0.209711
    70  C   -0.231095
    71  C   -0.344232
    72  H    0.199018
    73  C   -0.213402
    74  H    0.195129
    75  H    0.168604
    76  H    0.166471
    77  H    0.172233
    78  H    0.128165
    79  H    0.166925
    80  H    0.167199
    81  H    0.133393
    82  H    0.173100
 Sum of Mulliken charges =   1.00000

 Dipole moment (field-independent basis, Debye):
    X=              1.7277    Y=              0.5795    Z=             -1.3245  Tot=              2.2528
 Quadrupole moment (field-independent basis, Debye-Ang):
   XX=           -226.4274   YY=           -221.8978   ZZ=           -225.5045
   XY=             -1.0719   XZ=             10.1927   YZ=             -4.8208

 Summary of Natural Population Analysis:

                                       Natural Population
                Natural  -----------------------------------------------
    Atom  No    Charge         Core      Valence    Rydberg      Total
 -----------------------------------------------------------------------
      P    1    1.13128      9.99636     3.82059    0.05177    13.86872
      P    2    1.13116      9.99638     3.82106    0.05140    13.86884
      C    3   -0.36771      1.99898     4.34475    0.02398     6.36771
      C    4   -0.18053      1.99909     4.16584    0.01560     6.18053
      H    5    0.22213      0.00000     0.77572    0.00216     0.77787
      C    6   -0.20262      1.99919     4.18880    0.01463     6.20262
      H    7    0.22127      0.00000     0.77749    0.00124     0.77873
      C    8   -0.17248      1.99921     4.15879    0.01449     6.17248
      H    9    0.22274      0.00000     0.77609    0.00117     0.77726
      C   10   -0.19495      1.99919     4.18119    0.01457     6.19495
      H   11    0.22586      0.00000     0.77291    0.00123     0.77414
      C   12   -0.19880      1.99909     4.18368    0.01602     6.19880
      H   13    0.24975      0.00000     0.74810    0.00215     0.75025
      C   14   -0.34317      1.99898     4.32024    0.02395     6.34317
      C   15   -0.18912      1.99909     4.17495    0.01507     6.18912
      H   16    0.22449      0.00000     0.77375    0.00176     0.77551
      C   17   -0.18656      1.99920     4.17274    0.01462     6.18656
      H   18    0.22336      0.00000     0.77543    0.00121     0.77664
      C   19   -0.18056      1.99920     4.16666    0.01470     6.18056
      H   20    0.22284      0.00000     0.77598    0.00117     0.77716
      C   21   -0.19414      1.99920     4.18017    0.01477     6.19414
      H   22    0.22018      0.00000     0.77857    0.00125     0.77982
      C   23   -0.19923      1.99909     4.18511    0.01504     6.19923
      H   24    0.20828      0.00000     0.78977    0.00195     0.79172
      C   25   -0.73224      1.99936     4.71144    0.02144     6.73224
      H   26    0.26566      0.00000     0.73215    0.00219     0.73434
      C   27   -0.50886      1.99923     4.49429    0.01533     6.50886
      H   28    0.23619      0.00000     0.76149    0.00232     0.76381
      H   29    0.24298      0.00000     0.75433    0.00269     0.75702
      C   30    0.75931      1.99946     3.19758    0.04364     5.24069
      C   31   -0.07499      1.99927     4.06119    0.01453     6.07499
      H   32    0.19210      0.00000     0.80597    0.00193     0.80790
      H   33    0.18622      0.00000     0.81138    0.00240     0.81378
      C   34   -0.61035      1.99946     4.60379    0.00709     6.61035
      H   35    0.21433      0.00000     0.78442    0.00125     0.78567
      H   36    0.22199      0.00000     0.77704    0.00097     0.77801
      H   37    0.20744      0.00000     0.79126    0.00130     0.79256
      C   38   -0.34701      1.99899     4.32447    0.02355     6.34701
      C   39   -0.19466      1.99909     4.18044    0.01512     6.19466
      H   40    0.21589      0.00000     0.78190    0.00221     0.78411
      C   41   -0.18981      1.99920     4.17607    0.01454     6.18981
      H   42    0.22203      0.00000     0.77673    0.00125     0.77797
      C   43   -0.18085      1.99920     4.16703    0.01461     6.18085
      H   44    0.22306      0.00000     0.77577    0.00117     0.77694
      C   45   -0.19092      1.99920     4.17705    0.01467     6.19092
      H   46    0.22303      0.00000     0.77575    0.00122     0.77697
      C   47   -0.19999      1.99910     4.18572    0.01517     6.19999
      H   48    0.22025      0.00000     0.77798    0.00177     0.77975
      C   49   -0.34737      1.99899     4.32471    0.02367     6.34737
      C   50   -0.19123      1.99910     4.17626    0.01587     6.19123
      H   51    0.22135      0.00000     0.77671    0.00195     0.77865
      C   52   -0.19016      1.99920     4.17638    0.01459     6.19016
      H   53    0.22366      0.00000     0.77511    0.00123     0.77634
      C   54   -0.17464      1.99921     4.16091    0.01452     6.17464
      H   55    0.22337      0.00000     0.77546    0.00117     0.77663
      C   56   -0.19502      1.99920     4.18122    0.01460     6.19502
      H   57    0.22119      0.00000     0.77758    0.00123     0.77881
      C   58   -0.19293      1.99910     4.17838    0.01546     6.19293
      H   59    0.21925      0.00000     0.77876    0.00199     0.78075
      O   60   -0.48418      1.99974     6.47004    0.01440     8.48418
      O   61   -0.57427      1.99975     6.56243    0.01210     8.57427
     Rh   62   -0.40110     35.98579     9.38625    0.02907    45.40110
      C   63   -0.18188      1.99906     4.16333    0.01949     6.18188
      C   64   -0.15237      1.99908     4.13366    0.01964     6.15237
      C   65   -0.17775      1.99906     4.15903    0.01966     6.17775
      C   66   -0.15593      1.99908     4.13710    0.01975     6.15593
      C   67   -0.42381      1.99936     4.41262    0.01183     6.42381
      H   68    0.22629      0.00000     0.77176    0.00195     0.77371
      H   69    0.23268      0.00000     0.76537    0.00195     0.76732
      C   70   -0.41792      1.99935     4.40594    0.01263     6.41792
      C   71   -0.42424      1.99936     4.41301    0.01187     6.42424
      H   72    0.22555      0.00000     0.77228    0.00217     0.77445
      C   73   -0.41880      1.99935     4.40684    0.01261     6.41880
      H   74    0.22933      0.00000     0.76853    0.00214     0.77067
      H   75    0.22817      0.00000     0.77034    0.00149     0.77183
      H   76    0.21517      0.00000     0.78284    0.00199     0.78483
      H   77    0.23432      0.00000     0.76377    0.00191     0.76568
      H   78    0.21515      0.00000     0.78328    0.00157     0.78485
      H   79    0.21544      0.00000     0.78256    0.00200     0.78456
      H   80    0.22733      0.00000     0.77116    0.00151     0.77267
      H   81    0.21635      0.00000     0.78209    0.00157     0.78365
      H   82    0.23474      0.00000     0.76336    0.00190     0.76526
 =======================================================================
   * Total *    1.00000    133.94759   217.20269    0.84971   352.00000

 Normal termination of Gaussian 16 at Wed Jan 22 03:55:23 2025.
