 Gaussian 16, Revision B.01,
 Gaussian 16:  ES64L-G16RevB.01 20-Dec-2017

 ------------------------------------------
 # nmr=giao b3lyp/genecp pop=nbo scfcyc=200
 ------------------------------------------

 ---------
 MS-24_SPE
 ---------
 Symbolic Z-matrix:
 Charge =  1 Multiplicity = 1

                         Standard orientation:
 ---------------------------------------------------------------------
 Center     Atomic      Atomic             Coordinates (Angstroms)
 Number     Number       Type             X           Y           Z
 ---------------------------------------------------------------------
      1         15           0       -0.940097   -0.930413    0.154480
      2         15           0        0.937709    1.147541    0.111830
      3          6           0       -1.286846   -1.489974    1.870540
      4          6           0       -0.288534   -2.186301    2.560450
      5          1           0        0.665006   -2.369909    2.081880
      6          6           0       -0.511603   -2.631232    3.858870
      7          1           0        0.265898   -3.171590    4.384170
      8          6           0       -1.732034   -2.382775    4.478040
      9          1           0       -1.908013   -2.731775    5.488040
     10          6           0       -2.727765   -1.686317    3.798200
     11          1           0       -3.678266   -1.490409    4.278740
     12          6           0       -2.514796   -1.239136    2.498480
     13          1           0       -3.291957   -0.691168    1.978910
     14          6           0       -2.298395   -1.558626   -0.918810
     15          6           0       -3.133203   -2.599638   -0.507850
     16          1           0       -3.047702   -3.010257    0.488580
     17          6           0       -4.094312   -3.109720   -1.375490
     18          1           0       -4.740970   -3.911811   -1.042690
     19          6           0       -4.229703   -2.590550   -2.657170
     20          1           0       -4.981622   -2.986652   -3.327830
     21          6           0       -3.390755   -1.562288   -3.078090
     22          1           0       -3.485696   -1.158058   -4.078220
     23          6           0       -2.424617   -1.055856   -2.218720
     24          1           0       -1.767348   -0.270445   -2.573260
     25          6           0       -0.951001    0.967247    0.098520
     26          1           0       -1.142352    1.165177   -0.961130
     27          6           0       -1.870253    1.863115    0.941300
     28          1           0       -1.930042    1.499865    1.964870
     29          1           0       -1.446135    2.865756    0.985970
     30          6           0        1.569937    1.650693    1.765710
     31          6           0        0.891678    1.357641    2.951840
     32          1           0       -0.075951    0.877879    2.932940
     33          6           0        1.462707    1.666073    4.182550
     34          1           0        0.921108    1.440531    5.092510
     35          6           0        2.719306    2.256785    4.245710
     36          1           0        3.160406    2.496286    5.204920
     37          6           0        3.409625    2.535947    3.069960
     38          1           0        4.390984    2.991789    3.109860
     39          6           0        2.842796    2.233016    1.838280
     40          1           0        3.393016    2.463627    0.934400
     41          6           0        1.252035    2.588332   -0.997930
     42          6           0        1.261972    3.906192   -0.527100
     43          1           0        1.160292    4.110542    0.530760
     44          6           0        1.420510    4.964762   -1.415190
     45          1           0        1.433958    5.980682   -1.040480
     46          6           0        1.566551    4.721583   -2.777840
     47          1           0        1.695499    5.548123   -3.465190
     48          6           0        1.552684    3.414573   -3.253790
     49          1           0        1.670264    3.220413   -4.312550
     50          6           0        1.397806    2.352692   -2.368830
     51          1           0        1.391088    1.335852   -2.742530
     52         45           0        1.307473   -1.079998   -0.547950
     53          6           0        1.580608   -3.345647   -0.680740
     54          6           0        1.116287   -2.873508   -1.891010
     55          6           0        3.288383   -0.921263   -1.698620
     56          6           0        3.552504   -1.203953   -0.376190
     57          6           0        3.017459   -3.720004   -0.367760
     58          1           0        0.836689   -3.738129    0.004020
     59          1           0        0.049558   -2.949141   -2.074280
     60          6           0        1.938407   -2.572096   -3.119820
     61          6           0        3.310535   -1.923043   -2.838090
     62          1           0        3.334921    0.121227   -1.991930
     63          6           0        3.847697   -2.558022    0.220350
     64          1           0        3.804932   -0.368202    0.269020
     65          1           0        3.012951   -4.538674    0.353770
     66          1           0        3.497440   -4.115093   -1.262840
     67          1           0        2.076089   -3.492016   -3.702090
     68          1           0        1.350345   -1.905998   -3.755190
     69          1           0        4.059287   -2.689082   -2.637910
     70          1           0        3.642624   -1.411453   -3.743160
     71          1           0        3.662177   -2.492763    1.294760
     72          1           0        4.917677   -2.778380    0.117270
     73          7           0       -3.714995    2.861211   -0.411670
     74          6           0       -5.111185    2.900218   -0.844500
     75          1           0       -5.599627    3.799787   -0.460200
     76          1           0       -5.164825    2.912808   -1.935490
     77          1           0       -5.623593    2.022187   -0.465880
     78          6           0       -2.914168    4.014593   -0.805850
     79          1           0       -1.850857    3.794815   -0.795550
     80          1           0       -3.180408    4.292422   -1.826530
     81          1           0       -3.105420    4.877962   -0.159950
     82          6           0       -3.310513    1.860022    0.416970
     83          8           0       -4.053221    0.938320    0.743270
 ---------------------------------------------------------------------

 SCF Done:  E(RB3LYP) =  -2358.33278259     A.U. after   16 cycles

      1  P    Isotropic =   285.3206   Anisotropy =    67.2567

      2  P    Isotropic =   286.0015   Anisotropy =    95.6084

      3  C    Isotropic =    52.5826   Anisotropy =   161.9610

      4  C    Isotropic =    39.3721   Anisotropy =   180.5968

      5  H    Isotropic =    23.2926   Anisotropy =     9.8812

      6  C    Isotropic =    49.4587   Anisotropy =   187.7111

      7  H    Isotropic =    24.0477   Anisotropy =     6.9061

      8  C    Isotropic =    44.0851   Anisotropy =   199.9530

      9  H    Isotropic =    23.7582   Anisotropy =     3.5191

     10  C    Isotropic =    48.2197   Anisotropy =   190.8847

     11  H    Isotropic =    23.7733   Anisotropy =     6.2150

     12  C    Isotropic =    38.5958   Anisotropy =   207.9363

     13  H    Isotropic =    21.8391   Anisotropy =     9.2042

     14  C    Isotropic =    45.0360   Anisotropy =   170.3144

     15  C    Isotropic =    46.8268   Anisotropy =   191.6229

     16  H    Isotropic =    24.7440   Anisotropy =    12.8052

     17  C    Isotropic =    48.7302   Anisotropy =   189.8211

     18  H    Isotropic =    24.3259   Anisotropy =     6.3704

     19  C    Isotropic =    46.9367   Anisotropy =   194.6339

     20  H    Isotropic =    24.1828   Anisotropy =     3.6996

     21  C    Isotropic =    49.7887   Anisotropy =   188.0520

     22  H    Isotropic =    24.1595   Anisotropy =     6.8336

     23  C    Isotropic =    50.4101   Anisotropy =   186.1619

     24  H    Isotropic =    24.1854   Anisotropy =    10.0453

     25  C    Isotropic =   110.1044   Anisotropy =    45.8591

     26  H    Isotropic =    27.7881   Anisotropy =     3.2814

     27  C    Isotropic =   151.2304   Anisotropy =    26.5952

     28  H    Isotropic =    29.0526   Anisotropy =     3.6061

     29  H    Isotropic =    29.4117   Anisotropy =     5.6118

     30  C    Isotropic =    48.1373   Anisotropy =   162.3249

     31  C    Isotropic =    47.5348   Anisotropy =   186.7030

     32  H    Isotropic =    25.4013   Anisotropy =     7.1771

     33  C    Isotropic =    49.4336   Anisotropy =   189.4063

     34  H    Isotropic =    24.6577   Anisotropy =     8.1919

     35  C    Isotropic =    46.7894   Anisotropy =   196.0576

     36  H    Isotropic =    24.1986   Anisotropy =     3.9709

     37  C    Isotropic =    48.6772   Anisotropy =   190.6687

     38  H    Isotropic =    24.2624   Anisotropy =     6.0790

     39  C    Isotropic =    47.3255   Anisotropy =   188.8079

     40  H    Isotropic =    24.7403   Anisotropy =    11.4419

     41  C    Isotropic =    42.5021   Anisotropy =   178.4078

     42  C    Isotropic =    46.5097   Anisotropy =   190.6023

     43  H    Isotropic =    24.4162   Anisotropy =    11.7812

     44  C    Isotropic =    48.7944   Anisotropy =   189.7512

     45  H    Isotropic =    24.2180   Anisotropy =     6.2207

     46  C    Isotropic =    45.0756   Anisotropy =   198.2278

     47  H    Isotropic =    23.9221   Anisotropy =     3.6112

     48  C    Isotropic =    48.0775   Anisotropy =   189.6444

     49  H    Isotropic =    23.8622   Anisotropy =     6.8536

     50  C    Isotropic =    44.0490   Anisotropy =   180.4328

     51  H    Isotropic =    23.2874   Anisotropy =    10.1281

     52  Rh   Isotropic =  -299.8509   Anisotropy =   332.6072

     53  C    Isotropic =    80.2768   Anisotropy =   119.5319

     54  C    Isotropic =    72.1052   Anisotropy =   123.8734

     55  C    Isotropic =    78.1867   Anisotropy =   121.9782

     56  C    Isotropic =    74.2181   Anisotropy =   120.4508

     57  C    Isotropic =   154.1199   Anisotropy =    24.7954

     58  H    Isotropic =    27.1004   Anisotropy =     6.1471

     59  H    Isotropic =    27.0240   Anisotropy =     4.2015

     60  C    Isotropic =   147.7809   Anisotropy =    29.2056

     61  C    Isotropic =   153.9365   Anisotropy =    24.9363

     62  H    Isotropic =    26.8122   Anisotropy =     5.9820

     63  C    Isotropic =   148.0640   Anisotropy =    28.5967

     64  H    Isotropic =    26.6490   Anisotropy =     4.4568

     65  H    Isotropic =    29.8807   Anisotropy =    11.6035

     66  H    Isotropic =    29.8213   Anisotropy =     9.9050

     67  H    Isotropic =    29.2378   Anisotropy =    12.5245

     68  H    Isotropic =    29.0631   Anisotropy =     7.3133

     69  H    Isotropic =    29.7436   Anisotropy =     9.7805

     70  H    Isotropic =    29.7642   Anisotropy =    11.4996

     71  H    Isotropic =    29.3377   Anisotropy =     7.3557

     72  H    Isotropic =    29.2354   Anisotropy =    12.7802

     73  N    Isotropic =   134.8272   Anisotropy =   118.7250

     74  C    Isotropic =   150.1005   Anisotropy =    54.2985

     75  H    Isotropic =    29.9128   Anisotropy =    11.8850

     76  H    Isotropic =    30.1512   Anisotropy =     8.8940

     77  H    Isotropic =    27.8597   Anisotropy =     6.3204

     78  C    Isotropic =   147.6111   Anisotropy =    53.5982

     79  H    Isotropic =    29.8784   Anisotropy =    10.5317

     80  H    Isotropic =    29.8575   Anisotropy =     7.0188

     81  H    Isotropic =    29.4270   Anisotropy =     9.0068

     82  C    Isotropic =    10.5041   Anisotropy =   115.9176

     83  O    Isotropic =   -84.2073   Anisotropy =   595.1511

 The electronic state is 1-A.
 Alpha  occ. eigenvalues --  -77.23931 -77.23493 -19.17582 -14.44089 -10.36317
 Alpha  occ. eigenvalues --  -10.31707 -10.30014 -10.29801 -10.29768 -10.29024
 Alpha  occ. eigenvalues --  -10.29015 -10.28907 -10.28899 -10.28807 -10.28790
 Alpha  occ. eigenvalues --  -10.28745 -10.28667 -10.28507 -10.28281 -10.28221
 Alpha  occ. eigenvalues --  -10.28149 -10.28102 -10.28061 -10.27879 -10.27808
 Alpha  occ. eigenvalues --  -10.27769 -10.27529 -10.27474 -10.27406 -10.27342
 Alpha  occ. eigenvalues --  -10.27340 -10.27331 -10.27229 -10.27163 -10.27081
 Alpha  occ. eigenvalues --  -10.27070 -10.27048 -10.26981 -10.26842 -10.26774
 Alpha  occ. eigenvalues --  -10.26683  -6.69881  -6.69435  -4.86161  -4.86115
 Alpha  occ. eigenvalues --   -4.85775  -4.85715  -4.85654  -4.85352  -3.31303
 Alpha  occ. eigenvalues --   -2.08193  -2.07538  -2.04774  -1.12862  -1.02638
 Alpha  occ. eigenvalues --   -0.97150  -0.96293  -0.96116  -0.95461  -0.94217
 Alpha  occ. eigenvalues --   -0.91274  -0.88940  -0.87820  -0.87306  -0.86417
 Alpha  occ. eigenvalues --   -0.85815  -0.85311  -0.85076  -0.84674  -0.84641
 Alpha  occ. eigenvalues --   -0.84224  -0.81746  -0.80863  -0.80107  -0.77626
 Alpha  occ. eigenvalues --   -0.77337  -0.75555  -0.72234  -0.71595  -0.71096
 Alpha  occ. eigenvalues --   -0.70574  -0.70532  -0.70363  -0.70261  -0.69627
 Alpha  occ. eigenvalues --   -0.67054  -0.65966  -0.65618  -0.63892  -0.62754
 Alpha  occ. eigenvalues --   -0.62197  -0.61759  -0.60937  -0.60464  -0.59933
 Alpha  occ. eigenvalues --   -0.59770  -0.57279  -0.57180  -0.56795  -0.56511
 Alpha  occ. eigenvalues --   -0.56364  -0.56076  -0.55765  -0.55655  -0.55488
 Alpha  occ. eigenvalues --   -0.55381  -0.54798  -0.54568  -0.53942  -0.53481
 Alpha  occ. eigenvalues --   -0.53256  -0.53135  -0.52552  -0.52483  -0.52360
 Alpha  occ. eigenvalues --   -0.52171  -0.52063  -0.51328  -0.50607  -0.50163
 Alpha  occ. eigenvalues --   -0.49869  -0.49334  -0.48798  -0.48654  -0.48260
 Alpha  occ. eigenvalues --   -0.47983  -0.47763  -0.47573  -0.47150  -0.46819
 Alpha  occ. eigenvalues --   -0.46647  -0.45968  -0.45896  -0.45797  -0.45648
 Alpha  occ. eigenvalues --   -0.45436  -0.44814  -0.44484  -0.44335  -0.43739
 Alpha  occ. eigenvalues --   -0.43216  -0.42933  -0.42835  -0.42584  -0.42448
 Alpha  occ. eigenvalues --   -0.41153  -0.37892  -0.37472  -0.36978  -0.36667
 Alpha  occ. eigenvalues --   -0.36111  -0.35897  -0.35553  -0.35436  -0.35147
 Alpha  occ. eigenvalues --   -0.35006  -0.34374  -0.34292  -0.33812  -0.33527
 Alpha  occ. eigenvalues --   -0.33398  -0.30497
 Alpha virt. eigenvalues --   -0.16170  -0.14667  -0.14069  -0.12927  -0.12692
 Alpha virt. eigenvalues --   -0.12188  -0.11419  -0.11017  -0.10394  -0.10025
 Alpha virt. eigenvalues --   -0.09098  -0.08285  -0.07560  -0.06642  -0.06185

 Mulliken charges:
               1
     1  P    0.400670
     2  P    0.429838
     3  C   -0.389655
     4  C    0.026136
     5  H    0.168097
     6  C   -0.138323
     7  H    0.128156
     8  C   -0.073268
     9  H    0.136254
    10  C   -0.120234
    11  H    0.135761
    12  C   -0.048407
    13  H    0.244635
    14  C   -0.108770
    15  C   -0.061458
    16  H    0.162940
    17  C   -0.101270
    18  H    0.132519
    19  C   -0.093774
    20  H    0.135535
    21  C   -0.107263
    22  H    0.124905
    23  C   -0.073049
    24  H    0.122005
    25  C   -0.597364
    26  H    0.220927
    27  C   -0.293283
    28  H    0.181818
    29  H    0.187374
    30  C   -0.095019
    31  C   -0.057972
    32  H    0.158957
    33  C   -0.135865
    34  H    0.133025
    35  C   -0.094000
    36  H    0.137637
    37  C   -0.090518
    38  H    0.135493
    39  C   -0.138992
    40  H    0.164186
    41  C   -0.241689
    42  C   -0.090892
    43  H    0.164887
    44  C   -0.094521
    45  H    0.137065
    46  C   -0.088718
    47  H    0.140666
    48  C   -0.105709
    49  H    0.132232
    50  C   -0.085091
    51  H    0.183542
    52  Rh  -0.618678
    53  C   -0.038452
    54  C   -0.093040
    55  C   -0.051634
    56  C   -0.100920
    57  C   -0.357520
    58  H    0.196187
    59  H    0.217234
    60  C   -0.234983
    61  C   -0.342305
    62  H    0.197590
    63  C   -0.212748
    64  H    0.192282
    65  H    0.168477
    66  H    0.165997
    67  H    0.171858
    68  H    0.127329
    69  H    0.166659
    70  H    0.166159
    71  H    0.133513
    72  H    0.172043
    73  N   -0.164183
    74  C   -0.267768
    75  H    0.140732
    76  H    0.135360
    77  H    0.176722
    78  C   -0.298662
    79  H    0.162390
    80  H    0.147839
    81  H    0.160113
    82  C    0.288158
    83  O   -0.405907
 Sum of Mulliken charges =   1.00000

 Dipole moment (field-independent basis, Debye):
    X=              2.0430    Y=              2.2136    Z=             -1.3506  Tot=              3.3012
 Quadrupole moment (field-independent basis, Debye-Ang):
   XX=           -233.9923   YY=           -217.2440   ZZ=           -224.0072
   XY=             -3.0121   XZ=              6.1723   YZ=             -6.1255

 Summary of Natural Population Analysis:

                                       Natural Population
                Natural  -----------------------------------------------
    Atom  No    Charge         Core      Valence    Rydberg      Total
 -----------------------------------------------------------------------
      P    1    1.14240      9.99634     3.80872    0.05253    13.85760
      P    2    1.12794      9.99637     3.82434    0.05135    13.87206
      C    3   -0.36957      1.99898     4.34648    0.02410     6.36957
      C    4   -0.17926      1.99909     4.16459    0.01558     6.17926
      H    5    0.22128      0.00000     0.77655    0.00217     0.77872
      C    6   -0.20433      1.99919     4.19049    0.01465     6.20433
      H    7    0.22030      0.00000     0.77845    0.00125     0.77970
      C    8   -0.17327      1.99921     4.15953    0.01453     6.17327
      H    9    0.22145      0.00000     0.77736    0.00118     0.77855
      C   10   -0.19712      1.99919     4.18342    0.01450     6.19712
      H   11    0.22394      0.00000     0.77483    0.00123     0.77606
      C   12   -0.20200      1.99909     4.18674    0.01617     6.20200
      H   13    0.26376      0.00000     0.73396    0.00228     0.73624
      C   14   -0.33648      1.99897     4.31298    0.02452     6.33648
      C   15   -0.18496      1.99909     4.17086    0.01502     6.18496
      H   16    0.22389      0.00000     0.77433    0.00179     0.77611
      C   17   -0.18597      1.99920     4.17220    0.01457     6.18597
      H   18    0.22209      0.00000     0.77669    0.00122     0.77791
      C   19   -0.18101      1.99920     4.16712    0.01469     6.18101
      H   20    0.22152      0.00000     0.77729    0.00118     0.77848
      C   21   -0.19304      1.99920     4.17912    0.01472     6.19304
      H   22    0.21849      0.00000     0.78026    0.00125     0.78151
      C   23   -0.19768      1.99908     4.18367    0.01493     6.19768
      H   24    0.20454      0.00000     0.79349    0.00197     0.79546
      C   25   -0.72791      1.99936     4.70671    0.02183     6.72791
      H   26    0.25472      0.00000     0.74315    0.00213     0.74528
      C   27   -0.50340      1.99926     4.48884    0.01530     6.50340
      H   28    0.24009      0.00000     0.75725    0.00266     0.75991
      H   29    0.22366      0.00000     0.77348    0.00286     0.77634
      C   30   -0.34713      1.99899     4.32446    0.02368     6.34713
      C   31   -0.19336      1.99909     4.17906    0.01521     6.19336
      H   32    0.21699      0.00000     0.78074    0.00227     0.78301
      C   33   -0.18959      1.99920     4.17586    0.01453     6.18959
      H   34    0.22225      0.00000     0.77651    0.00125     0.77775
      C   35   -0.18134      1.99920     4.16753    0.01461     6.18134
      H   36    0.22294      0.00000     0.77589    0.00117     0.77706
      C   37   -0.19169      1.99920     4.17784    0.01466     6.19169
      H   38    0.22274      0.00000     0.77603    0.00123     0.77726
      C   39   -0.20101      1.99910     4.18673    0.01519     6.20101
      H   40    0.21847      0.00000     0.77974    0.00180     0.78153
      C   41   -0.34572      1.99899     4.32289    0.02385     6.34572
      C   42   -0.19952      1.99909     4.18455    0.01588     6.19952
      H   43    0.22369      0.00000     0.77438    0.00193     0.77631
      C   44   -0.19378      1.99920     4.17991    0.01468     6.19378
      H   45    0.22372      0.00000     0.77504    0.00124     0.77628
      C   46   -0.17772      1.99921     4.16388    0.01463     6.17772
      H   47    0.22394      0.00000     0.77489    0.00117     0.77606
      C   48   -0.19447      1.99920     4.18061    0.01466     6.19447
      H   49    0.22212      0.00000     0.77666    0.00122     0.77788
      C   50   -0.19531      1.99910     4.18065    0.01556     6.19531
      H   51    0.22087      0.00000     0.77714    0.00199     0.77913
     Rh   52   -0.40293     35.98581     9.38796    0.02917    45.40293
      C   53   -0.18294      1.99906     4.16438    0.01949     6.18294
      C   54   -0.15233      1.99908     4.13360    0.01966     6.15233
      C   55   -0.17731      1.99906     4.15856    0.01968     6.17731
      C   56   -0.15889      1.99908     4.14004    0.01978     6.15889
      C   57   -0.42348      1.99936     4.41231    0.01181     6.42348
      H   58    0.22720      0.00000     0.77085    0.00195     0.77280
      H   59    0.23416      0.00000     0.76386    0.00198     0.76584
      C   60   -0.41763      1.99935     4.40565    0.01263     6.41763
      C   61   -0.42405      1.99936     4.41281    0.01188     6.42405
      H   62    0.22477      0.00000     0.77308    0.00215     0.77523
      C   63   -0.41861      1.99935     4.40665    0.01261     6.41861
      H   64    0.22800      0.00000     0.76986    0.00214     0.77200
      H   65    0.22811      0.00000     0.77040    0.00149     0.77189
      H   66    0.21480      0.00000     0.78321    0.00199     0.78520
      H   67    0.23397      0.00000     0.76412    0.00191     0.76603
      H   68    0.21450      0.00000     0.78392    0.00157     0.78550
      H   69    0.21525      0.00000     0.78275    0.00200     0.78475
      H   70    0.22670      0.00000     0.77179    0.00151     0.77330
      H   71    0.21642      0.00000     0.78202    0.00157     0.78358
      H   72    0.23407      0.00000     0.76403    0.00191     0.76593
      N   73   -0.39134      1.99944     5.37482    0.01708     7.39134
      C   74   -0.41110      1.99935     4.40102    0.01073     6.41110
      H   75    0.19706      0.00000     0.80110    0.00184     0.80294
      H   76    0.19477      0.00000     0.80352    0.00171     0.80523
      H   77    0.24640      0.00000     0.75191    0.00169     0.75360
      C   78   -0.40287      1.99934     4.39338    0.01015     6.40287
      H   79    0.20361      0.00000     0.79430    0.00209     0.79639
      H   80    0.20859      0.00000     0.78955    0.00186     0.79141
      H   81    0.19717      0.00000     0.80058    0.00225     0.80283
      C   82    0.64282      1.99935     3.32068    0.03714     5.35718
      O   83   -0.62602      1.99976     6.61356    0.01270     8.62602
 =======================================================================
   * Total *    1.00000    133.94714   217.20016    0.85270   352.00000

 Normal termination of Gaussian 16 at Wed Jan 22 03:54:21 2025.
