 Gaussian 16, Revision B.01,
 Gaussian 16:  ES64L-G16RevB.01 20-Dec-2017

 ------------------------------------------
 # nmr=giao b3lyp/genecp pop=nbo scfcyc=200
 ------------------------------------------

 ---------
 MS-21_SPE
 ---------
 Symbolic Z-matrix:
 Charge =  1 Multiplicity = 1

                         Standard orientation:
 ---------------------------------------------------------------------
 Center     Atomic      Atomic             Coordinates (Angstroms)
 Number     Number       Type             X           Y           Z
 ---------------------------------------------------------------------
      1         15           0       -1.231300   -0.431327    0.149290
      2         15           0        1.249612    0.880217    0.054350
      3          6           0       -1.791381   -0.739196    1.873830
      4          6           0       -1.117133   -1.698058    2.637200
      5          1           0       -0.279954   -2.232429    2.206690
      6          6           0       -1.508894   -1.958387    3.946080
      7          1           0       -0.982325   -2.704868    4.527340
      8          6           0       -2.574912   -1.261185    4.504000
      9          1           0       -2.882343   -1.464594    5.522210
     10          6           0       -3.247950   -0.301743    3.752020
     11          1           0       -4.076629    0.245279    4.183810
     12          6           0       -2.864410   -0.038264    2.441820
     13          1           0       -3.399968    0.713897    1.876810
     14          6           0       -2.722921   -0.576274   -0.925680
     15          6           0       -3.848132   -1.294312   -0.511640
     16          1           0       -3.895193   -1.712402    0.484540
     17          6           0       -4.925613   -1.468250   -1.375000
     18          1           0       -5.794304   -2.020528   -1.039430
     19          6           0       -4.890761   -0.933740   -2.657370
     20          1           0       -5.731852   -1.068128   -3.325600
     21          6           0       -3.767280   -0.229492   -3.081780
     22          1           0       -3.729809    0.182628   -4.082480
     23          6           0       -2.686200   -0.058914   -2.226110
     24          1           0       -1.814838    0.475634   -2.584880
     25          6           0       -0.589267    1.345931    0.023300
     26          1           0       -0.700986    1.577721   -1.039620
     27          6           0       -1.155094    2.522292    0.826640
     28          1           0       -1.290515    2.272593    1.875380
     29          1           0       -0.452892    3.356861    0.761530
     30          6           0       -2.496293    2.994675    0.288410
     31          6           0        2.019623    1.252526    1.683930
     32          6           0        1.296583    1.193897    2.878900
     33          1           0        0.234663    0.993819    2.874700
     34          6           0        1.938914    1.378106    4.098760
     35          1           0        1.363803    1.340497    5.015310
     36          6           0        3.309594    1.606963    4.142950
     37          1           0        3.806664    1.750922    5.093830
     38          6           0        4.040144    1.647671    2.959550
     39          1           0        5.108614    1.821219    2.985040
     40          6           0        3.402824    1.469133    1.737540
     41          1           0        3.987044    1.511811    0.827000
     42          6           0        2.014505    2.053746   -1.143100
     43          6           0        2.381918    3.352705   -0.773560
     44          1           0        2.301938    3.673505    0.256910
     45          6           0        2.867160    4.239104   -1.728000
     46          1           0        3.151452    5.241273   -1.432660
     47          6           0        2.988499    3.842064   -3.056530
     48          1           0        3.370620    4.534483   -3.795950
     49          6           0        2.619896    2.554834   -3.432080
     50          1           0        2.714095    2.241694   -4.464330
     51          6           0        2.134754    1.663835   -2.480490
     52          1           0        1.845272    0.663326   -2.777280
     53          8           0       -2.350952    3.642425   -0.877850
     54          8           0       -3.558503    2.805508    0.828580
     55         45           0        0.836498   -1.381132   -0.466750
     56          6           0        0.317893   -3.607671   -0.467250
     57          6           0        0.079404   -3.084960   -1.721500
     58          6           0        2.784976   -1.984166   -1.522250
     59          6           0        2.895766   -2.251866   -0.175060
     60          6           0        1.529181   -4.428123   -0.064510
     61          1           0       -0.535187   -3.677989    0.198790
     62          1           0       -0.942875   -2.804088   -1.953490
     63          6           0        0.990024   -3.162312   -2.922060
     64          6           0        2.493254   -3.004755   -2.606570
     65          1           0        3.197718   -1.042597   -1.865490
     66          6           0        2.688793   -3.582496    0.505420
     67          1           0        3.401397   -1.511637    0.437310
     68          1           0        1.222790   -5.148353    0.695920
     69          1           0        1.871150   -5.019524   -0.913530
     70          1           0        0.819242   -4.109172   -3.449760
     71          1           0        0.685946   -2.377402   -3.618140
     72          1           0        2.926902   -3.965926   -2.331710
     73          1           0        3.006325   -2.696776   -3.519230
     74          1           0        2.503583   -3.386625    1.563900
     75          1           0        3.621002   -4.160208    0.469770
     76          6           0       -3.562981    4.138548   -1.492200
     77          1           0       -4.063589    4.837049   -0.823760
     78          1           0       -3.241070    4.639677   -2.399990
     79          1           0       -4.234232    3.312289   -1.721970
 ---------------------------------------------------------------------

 SCF Done:  E(RB3LYP) =  -2338.88782547     A.U. after   16 cycles

      1  P    Isotropic =   289.1102   Anisotropy =    68.7332

      2  P    Isotropic =   286.3529   Anisotropy =    92.6895

      3  C    Isotropic =    52.4332   Anisotropy =   162.4954

      4  C    Isotropic =    39.4945   Anisotropy =   181.3251

      5  H    Isotropic =    23.2127   Anisotropy =     9.8386

      6  C    Isotropic =    49.1308   Anisotropy =   188.3871

      7  H    Isotropic =    23.9748   Anisotropy =     6.8730

      8  C    Isotropic =    43.8141   Anisotropy =   200.3456

      9  H    Isotropic =    23.7246   Anisotropy =     3.5506

     10  C    Isotropic =    47.8969   Anisotropy =   191.3951

     11  H    Isotropic =    23.7634   Anisotropy =     6.1810

     12  C    Isotropic =    40.2041   Anisotropy =   200.5458

     13  H    Isotropic =    22.9941   Anisotropy =     9.5084

     14  C    Isotropic =    45.6549   Anisotropy =   168.6910

     15  C    Isotropic =    46.7627   Anisotropy =   191.4683

     16  H    Isotropic =    24.8445   Anisotropy =    12.7131

     17  C    Isotropic =    48.4273   Anisotropy =   190.5662

     18  H    Isotropic =    24.3286   Anisotropy =     6.4043

     19  C    Isotropic =    46.4935   Anisotropy =   195.7729

     20  H    Isotropic =    24.1513   Anisotropy =     3.7409

     21  C    Isotropic =    49.4646   Anisotropy =   188.9192

     22  H    Isotropic =    24.1313   Anisotropy =     6.7465

     23  C    Isotropic =    50.0881   Anisotropy =   188.1669

     24  H    Isotropic =    24.1400   Anisotropy =    10.0273

     25  C    Isotropic =   111.0939   Anisotropy =    43.8557

     26  H    Isotropic =    27.3955   Anisotropy =     3.8359

     27  C    Isotropic =   147.4062   Anisotropy =    33.2366

     28  H    Isotropic =    29.0289   Anisotropy =     3.1450

     29  H    Isotropic =    29.5442   Anisotropy =     5.3783

     30  C    Isotropic =     5.7697   Anisotropy =   101.0591

     31  C    Isotropic =    48.2846   Anisotropy =   162.6009

     32  C    Isotropic =    47.9032   Anisotropy =   185.9794

     33  H    Isotropic =    25.4335   Anisotropy =     7.1530

     34  C    Isotropic =    49.6352   Anisotropy =   188.9485

     35  H    Isotropic =    24.6444   Anisotropy =     8.2540

     36  C    Isotropic =    46.6488   Anisotropy =   195.7458

     37  H    Isotropic =    24.1960   Anisotropy =     4.0528

     38  C    Isotropic =    48.5406   Anisotropy =   190.8962

     39  H    Isotropic =    24.2737   Anisotropy =     6.0632

     40  C    Isotropic =    47.2077   Anisotropy =   188.9631

     41  H    Isotropic =    24.7380   Anisotropy =    11.5981

     42  C    Isotropic =    44.2796   Anisotropy =   176.1108

     43  C    Isotropic =    46.2188   Anisotropy =   189.2732

     44  H    Isotropic =    24.4121   Anisotropy =    11.9642

     45  C    Isotropic =    48.4012   Anisotropy =   190.0570

     46  H    Isotropic =    24.1434   Anisotropy =     6.3159

     47  C    Isotropic =    44.5831   Anisotropy =   198.5184

     48  H    Isotropic =    23.8640   Anisotropy =     3.8287

     49  C    Isotropic =    48.2975   Anisotropy =   189.0099

     50  H    Isotropic =    23.8712   Anisotropy =     7.0133

     51  C    Isotropic =    44.1252   Anisotropy =   178.8589

     52  H    Isotropic =    23.3357   Anisotropy =    10.2782

     53  O    Isotropic =   129.2910   Anisotropy =   153.1222

     54  O    Isotropic =  -117.1527   Anisotropy =   615.7087

     55  Rh   Isotropic =  -303.6542   Anisotropy =   333.4152

     56  C    Isotropic =    80.5903   Anisotropy =   119.0317

     57  C    Isotropic =    72.8314   Anisotropy =   122.6108

     58  C    Isotropic =    78.2011   Anisotropy =   122.1088

     59  C    Isotropic =    73.6376   Anisotropy =   121.4530

     60  C    Isotropic =   154.0423   Anisotropy =    24.7569

     61  H    Isotropic =    27.1129   Anisotropy =     6.1299

     62  H    Isotropic =    27.0343   Anisotropy =     3.8645

     63  C    Isotropic =   147.7511   Anisotropy =    29.4272

     64  C    Isotropic =   154.0321   Anisotropy =    24.8723

     65  H    Isotropic =    26.7566   Anisotropy =     6.0964

     66  C    Isotropic =   147.9406   Anisotropy =    28.7496

     67  H    Isotropic =    26.6770   Anisotropy =     4.1571

     68  H    Isotropic =    29.8367   Anisotropy =    11.5733

     69  H    Isotropic =    29.7665   Anisotropy =     9.9111

     70  H    Isotropic =    29.1989   Anisotropy =    12.5292

     71  H    Isotropic =    29.0560   Anisotropy =     7.3926

     72  H    Isotropic =    29.7060   Anisotropy =     9.8026

     73  H    Isotropic =    29.7249   Anisotropy =    11.5869

     74  H    Isotropic =    29.3021   Anisotropy =     7.2962

     75  H    Isotropic =    29.2180   Anisotropy =    12.7509

     76  C    Isotropic =   129.4026   Anisotropy =    76.9655

     77  H    Isotropic =    28.4649   Anisotropy =    10.8497

     78  H    Isotropic =    28.7032   Anisotropy =     8.5244

     79  H    Isotropic =    28.9574   Anisotropy =     6.6945

 The electronic state is 1-A.
 Alpha  occ. eigenvalues --  -77.24049 -77.23908 -19.26710 -19.20999 -10.39815
 Alpha  occ. eigenvalues --  -10.31867 -10.30959 -10.29878 -10.29795 -10.29681
 Alpha  occ. eigenvalues --  -10.29606 -10.29598 -10.29165 -10.29099 -10.28894
 Alpha  occ. eigenvalues --  -10.28799 -10.28561 -10.28470 -10.28440 -10.28379
 Alpha  occ. eigenvalues --  -10.28332 -10.28308 -10.28045 -10.27909 -10.27824
 Alpha  occ. eigenvalues --  -10.27771 -10.27715 -10.27706 -10.27615 -10.27575
 Alpha  occ. eigenvalues --  -10.27572 -10.27571 -10.27570 -10.27556 -10.27471
 Alpha  occ. eigenvalues --  -10.27433 -10.27404 -10.27371 -10.27356 -10.27327
 Alpha  occ. eigenvalues --   -6.70000  -6.69861  -4.86282  -4.86228  -4.86137
 Alpha  occ. eigenvalues --   -4.86086  -4.85898  -4.85772  -3.31603  -2.08493
 Alpha  occ. eigenvalues --   -2.07845  -2.05066  -1.20404  -1.11735  -0.97038
 Alpha  occ. eigenvalues --   -0.96713  -0.96226  -0.96075  -0.94467  -0.91996
 Alpha  occ. eigenvalues --   -0.89202  -0.88059  -0.87454  -0.87236  -0.85538
 Alpha  occ. eigenvalues --   -0.85389  -0.85309  -0.85203  -0.85007  -0.84846
 Alpha  occ. eigenvalues --   -0.82863  -0.80392  -0.79053  -0.77871  -0.75844
 Alpha  occ. eigenvalues --   -0.72633  -0.71458  -0.71159  -0.71145  -0.70835
 Alpha  occ. eigenvalues --   -0.70617  -0.70398  -0.70214  -0.67225  -0.66556
 Alpha  occ. eigenvalues --   -0.66054  -0.65863  -0.62820  -0.62514  -0.62176
 Alpha  occ. eigenvalues --   -0.61299  -0.60749  -0.60438  -0.60026  -0.58357
 Alpha  occ. eigenvalues --   -0.57698  -0.57067  -0.56568  -0.56326  -0.56298
 Alpha  occ. eigenvalues --   -0.56143  -0.56043  -0.55672  -0.55643  -0.55338
 Alpha  occ. eigenvalues --   -0.54961  -0.54421  -0.53708  -0.53367  -0.53007
 Alpha  occ. eigenvalues --   -0.52799  -0.52711  -0.52674  -0.52563  -0.52525
 Alpha  occ. eigenvalues --   -0.51696  -0.51401  -0.50834  -0.49252  -0.48921
 Alpha  occ. eigenvalues --   -0.48547  -0.48193  -0.47960  -0.47884  -0.47733
 Alpha  occ. eigenvalues --   -0.47403  -0.47181  -0.46239  -0.46076  -0.46043
 Alpha  occ. eigenvalues --   -0.45448  -0.45272  -0.45133  -0.44956  -0.44863
 Alpha  occ. eigenvalues --   -0.43933  -0.43472  -0.43340  -0.43223  -0.42960
 Alpha  occ. eigenvalues --   -0.42840  -0.41447  -0.40209  -0.38158  -0.37962
 Alpha  occ. eigenvalues --   -0.37492  -0.36929  -0.36476  -0.36190  -0.36123
 Alpha  occ. eigenvalues --   -0.35890  -0.35761  -0.35597  -0.35231  -0.34707
 Alpha  occ. eigenvalues --   -0.34155  -0.33691  -0.30800
 Alpha virt. eigenvalues --   -0.16457  -0.15018  -0.14148  -0.13407  -0.12795
 Alpha virt. eigenvalues --   -0.12325  -0.11824  -0.11128  -0.10781  -0.10437
 Alpha virt. eigenvalues --   -0.09615  -0.09329  -0.07719  -0.06650  -0.06407

 Mulliken charges:
               1
     1  P    0.374386
     2  P    0.428473
     3  C   -0.352228
     4  C    0.011825
     5  H    0.166345
     6  C   -0.127864
     7  H    0.130886
     8  C   -0.079382
     9  H    0.138731
    10  C   -0.120209
    11  H    0.140127
    12  C   -0.063756
    13  H    0.217358
    14  C   -0.145566
    15  C   -0.064217
    16  H    0.165037
    17  C   -0.096775
    18  H    0.135820
    19  C   -0.095226
    20  H    0.138485
    21  C   -0.109822
    22  H    0.129923
    23  C   -0.068794
    24  H    0.132502
    25  C   -0.614356
    26  H    0.244260
    27  C   -0.163853
    28  H    0.172651
    29  H    0.166482
    30  C    0.247455
    31  C   -0.106256
    32  C   -0.064090
    33  H    0.163314
    34  C   -0.138066
    35  H    0.132655
    36  C   -0.090106
    37  H    0.138327
    38  C   -0.093471
    39  H    0.136083
    40  C   -0.123843
    41  H    0.164496
    42  C   -0.235765
    43  C   -0.086523
    44  H    0.163868
    45  C   -0.092442
    46  H    0.136936
    47  C   -0.087023
    48  H    0.139868
    49  C   -0.106468
    50  H    0.130470
    51  C   -0.080494
    52  H    0.181753
    53  O   -0.211046
    54  O   -0.315728
    55  Rh  -0.595406
    56  C   -0.040369
    57  C   -0.090682
    58  C   -0.050724
    59  C   -0.100202
    60  C   -0.358672
    61  H    0.194322
    62  H    0.209541
    63  C   -0.230694
    64  C   -0.344334
    65  H    0.199262
    66  C   -0.213300
    67  H    0.194961
    68  H    0.168722
    69  H    0.166630
    70  H    0.172424
    71  H    0.128371
    72  H    0.167033
    73  H    0.167461
    74  H    0.133433
    75  H    0.173264
    76  C   -0.180574
    77  H    0.149650
    78  H    0.142960
    79  H    0.141774
 Sum of Mulliken charges =   1.00000

 Dipole moment (field-independent basis, Debye):
    X=              1.6351    Y=             -0.4124    Z=             -1.2092  Tot=              2.0751
 Quadrupole moment (field-independent basis, Debye-Ang):
   XX=           -220.7663   YY=           -222.4037   ZZ=           -214.3817
   XY=              5.1218   XZ=              5.3275   YZ=             -7.4596

 Summary of Natural Population Analysis:

                                       Natural Population
                Natural  -----------------------------------------------
    Atom  No    Charge         Core      Valence    Rydberg      Total
 -----------------------------------------------------------------------
      P    1    1.13147      9.99636     3.82043    0.05174    13.86853
      P    2    1.13117      9.99639     3.82106    0.05139    13.86883
      C    3   -0.36769      1.99899     4.34470    0.02400     6.36769
      C    4   -0.18058      1.99909     4.16589    0.01560     6.18058
      H    5    0.22226      0.00000     0.77559    0.00215     0.77774
      C    6   -0.20228      1.99919     4.18847    0.01463     6.20228
      H    7    0.22145      0.00000     0.77730    0.00124     0.77855
      C    8   -0.17238      1.99921     4.15870    0.01448     6.17238
      H    9    0.22295      0.00000     0.77588    0.00117     0.77705
      C   10   -0.19467      1.99919     4.18090    0.01458     6.19467
      H   11    0.22617      0.00000     0.77261    0.00123     0.77383
      C   12   -0.19823      1.99909     4.18313    0.01601     6.19823
      H   13    0.24759      0.00000     0.75027    0.00215     0.75241
      C   14   -0.34396      1.99898     4.32107    0.02391     6.34396
      C   15   -0.18980      1.99910     4.17562    0.01508     6.18980
      H   16    0.22446      0.00000     0.77379    0.00176     0.77554
      C   17   -0.18678      1.99920     4.17295    0.01463     6.18678
      H   18    0.22354      0.00000     0.77525    0.00121     0.77646
      C   19   -0.18055      1.99920     4.16663    0.01472     6.18055
      H   20    0.22309      0.00000     0.77574    0.00117     0.77691
      C   21   -0.19436      1.99920     4.18026    0.01491     6.19436
      H   22    0.22062      0.00000     0.77814    0.00124     0.77938
      C   23   -0.19913      1.99909     4.18494    0.01510     6.19913
      H   24    0.20874      0.00000     0.78933    0.00193     0.79126
      C   25   -0.73360      1.99936     4.71273    0.02151     6.73360
      H   26    0.26695      0.00000     0.73093    0.00212     0.73305
      C   27   -0.50967      1.99923     4.49500    0.01544     6.50967
      H   28    0.23698      0.00000     0.76070    0.00233     0.76302
      H   29    0.24431      0.00000     0.75302    0.00267     0.75569
      C   30    0.75437      1.99946     3.20226    0.04391     5.24563
      C   31   -0.34728      1.99899     4.32474    0.02355     6.34728
      C   32   -0.19479      1.99909     4.18057    0.01512     6.19479
      H   33    0.21569      0.00000     0.78210    0.00221     0.78431
      C   34   -0.18974      1.99920     4.17600    0.01454     6.18974
      H   35    0.22208      0.00000     0.77667    0.00125     0.77792
      C   36   -0.18070      1.99920     4.16689    0.01461     6.18070
      H   37    0.22317      0.00000     0.77566    0.00117     0.77683
      C   38   -0.19077      1.99920     4.17691    0.01467     6.19077
      H   39    0.22314      0.00000     0.77564    0.00122     0.77686
      C   40   -0.19993      1.99910     4.18565    0.01517     6.19993
      H   41    0.22030      0.00000     0.77793    0.00177     0.77970
      C   42   -0.34747      1.99899     4.32483    0.02365     6.34747
      C   43   -0.19163      1.99910     4.17667    0.01586     6.19163
      H   44    0.22136      0.00000     0.77670    0.00194     0.77864
      C   45   -0.19000      1.99920     4.17622    0.01458     6.19000
      H   46    0.22383      0.00000     0.77494    0.00122     0.77617
      C   47   -0.17438      1.99921     4.16065    0.01452     6.17438
      H   48    0.22354      0.00000     0.77530    0.00117     0.77646
      C   49   -0.19472      1.99920     4.18093    0.01459     6.19472
      H   50    0.22131      0.00000     0.77746    0.00123     0.77869
      C   51   -0.19301      1.99910     4.17846    0.01545     6.19301
      H   52    0.21926      0.00000     0.77875    0.00199     0.78074
      O   53   -0.47679      1.99975     6.46268    0.01436     8.47679
      O   54   -0.56955      1.99975     6.55751    0.01230     8.56955
     Rh   55   -0.40094     35.98577     9.38611    0.02906    45.40094
      C   56   -0.18229      1.99906     4.16373    0.01949     6.18229
      C   57   -0.15188      1.99908     4.13317    0.01963     6.15188
      C   58   -0.17717      1.99906     4.15846    0.01965     6.17717
      C   59   -0.15583      1.99908     4.13700    0.01976     6.15583
      C   60   -0.42373      1.99936     4.41255    0.01183     6.42373
      H   61    0.22621      0.00000     0.77184    0.00195     0.77379
      H   62    0.23255      0.00000     0.76550    0.00195     0.76745
      C   63   -0.41792      1.99935     4.40594    0.01263     6.41792
      C   64   -0.42436      1.99936     4.41312    0.01188     6.42436
      H   65    0.22569      0.00000     0.77215    0.00217     0.77431
      C   66   -0.41892      1.99935     4.40696    0.01261     6.41892
      H   67    0.22941      0.00000     0.76845    0.00214     0.77059
      H   68    0.22821      0.00000     0.77030    0.00149     0.77179
      H   69    0.21523      0.00000     0.78278    0.00199     0.78477
      H   70    0.23445      0.00000     0.76364    0.00191     0.76555
      H   71    0.21523      0.00000     0.78321    0.00157     0.78477
      H   72    0.21550      0.00000     0.78250    0.00200     0.78450
      H   73    0.22750      0.00000     0.77099    0.00151     0.77250
      H   74    0.21637      0.00000     0.78207    0.00157     0.78363
      H   75    0.23487      0.00000     0.76323    0.00190     0.76513
      C   76   -0.26334      1.99927     4.25022    0.01385     6.26334
      H   77    0.19800      0.00000     0.80039    0.00161     0.80200
      H   78    0.19838      0.00000     0.80040    0.00122     0.80162
      H   79    0.19343      0.00000     0.80480    0.00177     0.80657
 =======================================================================
   * Total *    1.00000    131.94811   211.21266    0.83922   344.00000

 Normal termination of Gaussian 16 at Wed Jan 22 03:47:45 2025.
