 Gaussian 16, Revision B.01,
 Gaussian 16:  ES64L-G16RevB.01 20-Dec-2017

 ------------------------------------------
 # nmr=giao b3lyp/genecp pop=nbo scfcyc=200
 ------------------------------------------

 --------
 MS-2_SPE
 --------
 Symbolic Z-matrix:
 Charge =  1 Multiplicity = 1

                         Standard orientation:
 ---------------------------------------------------------------------
 Center     Atomic      Atomic             Coordinates (Angstroms)
 Number     Number       Type             X           Y           Z
 ---------------------------------------------------------------------
      1         15           0       -1.360600    0.252061   -0.821240
      2          6           0       -0.857280    2.003121   -0.302990
      3          1           0       -1.466310    2.390321    0.516060
      4         45           0        0.662090   -0.756459   -0.117800
      5          6           0        0.188321   -3.051659   -0.159690
      6          6           0        0.650651   -2.678079   -1.394620
      7          6           0        2.843800   -1.384589    0.086430
      8          6           0        2.222120   -1.506649    1.312510
      9          1           0       -0.887749   -3.068179   -0.027210
     10          6           0        0.996761   -3.739789    0.922040
     11          1           0       -0.092940   -2.457149   -2.153890
     12          6           0        2.061921   -2.796749   -1.912320
     13          6           0        3.165060   -2.521528   -0.866860
     14          1           0        3.391810   -0.466058   -0.089480
     15          1           0        2.347190   -0.686459    2.012750
     16          6           0        1.662201   -2.767819    1.922100
     17          1           0        1.745721   -4.385419    0.465130
     18          1           0        0.331781   -4.401659    1.479380
     19          1           0        2.207661   -3.793079   -2.348100
     20          1           0        2.171730   -2.093929   -2.741060
     21          1           0        4.084650   -2.274718   -1.399900
     22          1           0        3.384301   -3.425328   -0.299150
     23          1           0        2.455851   -3.292239    2.468970
     24          1           0        0.929520   -2.474389    2.677390
     25          6           0       -0.940890    2.886351   -1.559090
     26          1           0       -1.925820    3.360141   -1.592170
     27          1           0       -0.199661    3.686731   -1.527270
     28          6           0       -0.752270    1.999541   -2.802280
     29          1           0        0.302890    1.743261   -2.922320
     30          1           0       -1.053570    2.524251   -3.710380
     31          6           0       -1.577540    0.715181   -2.619430
     32          1           0       -1.252120   -0.094089   -3.271140
     33          1           0       -2.634720    0.895331   -2.817060
     34          6           0       -3.003750   -0.171559   -0.112390
     35          6           0       -3.054050   -1.071879    0.956270
     36          6           0       -4.191780    0.413110   -0.565780
     37          6           0       -4.268120   -1.387490    1.557110
     38          1           0       -2.139420   -1.523099    1.320460
     39          6           0       -5.403310    0.094330    0.035570
     40          1           0       -4.186840    1.120990   -1.384590
     41          6           0       -5.444180   -0.807260    1.095510
     42          1           0       -4.294950   -2.088070    2.382240
     43          1           0       -6.316840    0.550180   -0.324880
     44          1           0       -6.390600   -1.055340    1.558960
     45          6           0        2.567390    3.432251    0.821260
     46          6           0        1.548500    3.419021    1.955310
     47          1           0        3.531480    3.039802    1.168680
     48          1           0        2.728349    4.442851    0.438400
     49          1           0        2.015539    3.649251    2.914450
     50          1           0        0.752979    4.157541    1.779810
     51         15           0        0.839410    1.485681    0.368510
     52          7           0        2.018300    2.567911   -0.234550
     53          7           0        1.024760    2.047991    1.977430
     54          6           0        0.046000    1.733091    3.008960
     55          1           0        0.492570    1.901941    3.990460
     56          1           0       -0.864580    2.343501    2.941560
     57          1           0       -0.236550    0.682011    2.942870
     58          6           0        2.924080    2.237601   -1.326550
     59          1           0        3.129490    3.128052   -1.925280
     60          1           0        3.881940    1.846682   -0.959710
     61          1           0        2.477800    1.488261   -1.978560
 ---------------------------------------------------------------------

 SCF Done:  E(RB3LYP) =  -1761.84620827     A.U. after   16 cycles

      1  P    Isotropic =   300.7479   Anisotropy =   109.4637

      2  C    Isotropic =   102.1401   Anisotropy =    71.7465

      3  H    Isotropic =    28.1585   Anisotropy =     4.2149

      4  Rh   Isotropic =  -305.9444   Anisotropy =   393.3064

      5  C    Isotropic =    69.7099   Anisotropy =   134.5130

      6  C    Isotropic =    66.6769   Anisotropy =   131.2798

      7  C    Isotropic =    80.7530   Anisotropy =   119.8865

      8  C    Isotropic =    74.0942   Anisotropy =   122.6725

      9  H    Isotropic =    26.5155   Anisotropy =     6.3204

     10  C    Isotropic =   154.2419   Anisotropy =    24.1569

     11  H    Isotropic =    25.9706   Anisotropy =     4.9504

     12  C    Isotropic =   148.5389   Anisotropy =    27.6341

     13  C    Isotropic =   153.8678   Anisotropy =    23.9980

     14  H    Isotropic =    27.1189   Anisotropy =     6.3067

     15  H    Isotropic =    26.3887   Anisotropy =     4.0110

     16  C    Isotropic =   147.6519   Anisotropy =    29.4893

     17  H    Isotropic =    29.6726   Anisotropy =     9.1390

     18  H    Isotropic =    29.7615   Anisotropy =    11.4875

     19  H    Isotropic =    29.0756   Anisotropy =    12.3327

     20  H    Isotropic =    29.1302   Anisotropy =     7.6388

     21  H    Isotropic =    29.8248   Anisotropy =    11.1613

     22  H    Isotropic =    29.6778   Anisotropy =     9.2770

     23  H    Isotropic =    28.9821   Anisotropy =    12.2240

     24  H    Isotropic =    28.9686   Anisotropy =     7.5335

     25  C    Isotropic =   148.5036   Anisotropy =    21.8783

     26  H    Isotropic =    29.9638   Anisotropy =    12.1537

     27  H    Isotropic =    29.4592   Anisotropy =     8.0041

     28  C    Isotropic =   151.4692   Anisotropy =    25.3697

     29  H    Isotropic =    29.5987   Anisotropy =     6.8079

     30  H    Isotropic =    29.3706   Anisotropy =    12.1857

     31  C    Isotropic =   150.8261   Anisotropy =    29.5042

     32  H    Isotropic =    29.4052   Anisotropy =     7.3792

     33  H    Isotropic =    29.4507   Anisotropy =    11.2242

     34  C    Isotropic =    46.7481   Anisotropy =   173.2120

     35  C    Isotropic =    43.6782   Anisotropy =   175.8871

     36  C    Isotropic =    50.0657   Anisotropy =   185.3781

     37  C    Isotropic =    49.0896   Anisotropy =   187.8800

     38  H    Isotropic =    23.7240   Anisotropy =    10.1432

     39  C    Isotropic =    47.7931   Anisotropy =   190.8521

     40  H    Isotropic =    24.3695   Anisotropy =    12.3354

     41  C    Isotropic =    44.6017   Anisotropy =   198.2495

     42  H    Isotropic =    24.1053   Anisotropy =     7.0873

     43  H    Isotropic =    24.0999   Anisotropy =     5.8391

     44  H    Isotropic =    23.9906   Anisotropy =     4.3178

     45  C    Isotropic =   127.3705   Anisotropy =    53.7803

     46  C    Isotropic =   129.0294   Anisotropy =    55.7951

     47  H    Isotropic =    29.0084   Anisotropy =    10.1448

     48  H    Isotropic =    28.6956   Anisotropy =    10.9389

     49  H    Isotropic =    28.8065   Anisotropy =    10.7108

     50  H    Isotropic =    29.0344   Anisotropy =     9.3227

     51  P    Isotropic =   206.4155   Anisotropy =   140.5358

     52  N    Isotropic =   207.8550   Anisotropy =    65.0851

     53  N    Isotropic =   194.7749   Anisotropy =    53.0085

     54  C    Isotropic =   149.8090   Anisotropy =    51.2755

     55  H    Isotropic =    29.1298   Anisotropy =    11.0853

     56  H    Isotropic =    29.7628   Anisotropy =     8.2659

     57  H    Isotropic =    28.7262   Anisotropy =     6.8920

     58  C    Isotropic =   145.4287   Anisotropy =    56.3958

     59  H    Isotropic =    28.9765   Anisotropy =    11.1712

     60  H    Isotropic =    29.3507   Anisotropy =     9.1177

     61  H    Isotropic =    28.6003   Anisotropy =     5.1673

 The electronic state is 1-A.
 Alpha  occ. eigenvalues --  -77.26955 -77.23331 -14.43646 -14.43518 -10.31436
 Alpha  occ. eigenvalues --  -10.31322 -10.30557 -10.30502 -10.30131 -10.30053
 Alpha  occ. eigenvalues --  -10.29905 -10.29773 -10.29767 -10.29591 -10.29558
 Alpha  occ. eigenvalues --  -10.28930 -10.28838 -10.28698 -10.28626 -10.28354
 Alpha  occ. eigenvalues --  -10.28307 -10.28111 -10.28078 -10.28036 -10.28034
 Alpha  occ. eigenvalues --  -10.27997  -6.72411  -6.69404  -4.88784  -4.88653
 Alpha  occ. eigenvalues --   -4.88307  -4.85666  -4.85617  -4.85309  -3.32382
 Alpha  occ. eigenvalues --   -2.09303  -2.08568  -2.05856  -1.06733  -1.00251
 Alpha  occ. eigenvalues --   -0.96994  -0.95239  -0.94056  -0.90036  -0.88790
 Alpha  occ. eigenvalues --   -0.87051  -0.86656  -0.85794  -0.84850  -0.81480
 Alpha  occ. eigenvalues --   -0.81010  -0.79428  -0.78707  -0.78602  -0.72159
 Alpha  occ. eigenvalues --   -0.71650  -0.71363  -0.70980  -0.70129  -0.67053
 Alpha  occ. eigenvalues --   -0.66588  -0.65593  -0.63284  -0.62600  -0.60801
 Alpha  occ. eigenvalues --   -0.60701  -0.60576  -0.58992  -0.58234  -0.57679
 Alpha  occ. eigenvalues --   -0.56977  -0.56621  -0.56312  -0.55913  -0.55273
 Alpha  occ. eigenvalues --   -0.54978  -0.54436  -0.53991  -0.53571  -0.53372
 Alpha  occ. eigenvalues --   -0.53199  -0.52447  -0.51475  -0.51443  -0.49309
 Alpha  occ. eigenvalues --   -0.49110  -0.48745  -0.48519  -0.48189  -0.47907
 Alpha  occ. eigenvalues --   -0.47375  -0.47150  -0.47020  -0.46834  -0.46450
 Alpha  occ. eigenvalues --   -0.45911  -0.45506  -0.44308  -0.44236  -0.43868
 Alpha  occ. eigenvalues --   -0.43559  -0.43176  -0.42109  -0.38956  -0.37689
 Alpha  occ. eigenvalues --   -0.36519  -0.36203  -0.35979  -0.35623  -0.34884
 Alpha  occ. eigenvalues --   -0.34305  -0.33806  -0.31496
 Alpha virt. eigenvalues --   -0.17834  -0.14907  -0.13557  -0.12102  -0.10257
 Alpha virt. eigenvalues --   -0.08748  -0.08626  -0.07948  -0.07494  -0.06833
 Alpha virt. eigenvalues --   -0.06239  -0.05261  -0.05010  -0.04760  -0.04518

 Mulliken charges:
               1
     1  P    0.327540
     2  C   -0.405545
     3  H    0.230966
     4  Rh  -0.594098
     5  C   -0.028220
     6  C   -0.091583
     7  C   -0.023129
     8  C   -0.091160
     9  H    0.187447
    10  C   -0.343350
    11  H    0.172247
    12  C   -0.212407
    13  C   -0.357284
    14  H    0.184484
    15  H    0.195495
    16  C   -0.224235
    17  H    0.168001
    18  H    0.171756
    19  H    0.177546
    20  H    0.132568
    21  H    0.170431
    22  H    0.168726
    23  H    0.177554
    24  H    0.130507
    25  C   -0.217522
    26  H    0.154972
    27  H    0.165475
    28  C   -0.286297
    29  H    0.134495
    30  H    0.175824
    31  C   -0.359283
    32  H    0.181451
    33  H    0.169468
    34  C   -0.168143
    35  C   -0.050902
    36  C   -0.055442
    37  C   -0.110827
    38  H    0.166845
    39  C   -0.096338
    40  H    0.136440
    41  C   -0.093921
    42  H    0.132729
    43  H    0.137143
    44  H    0.142489
    45  C   -0.159614
    46  C   -0.166577
    47  H    0.141408
    48  H    0.149510
    49  H    0.155372
    50  H    0.143463
    51  P    0.561873
    52  N   -0.306283
    53  N   -0.303520
    54  C   -0.281708
    55  H    0.154420
    56  H    0.130305
    57  H    0.143786
    58  C   -0.277783
    59  H    0.156734
    60  H    0.134488
    61  H    0.141210
 Sum of Mulliken charges =   1.00000

 Dipole moment (field-independent basis, Debye):
    X=              0.0939    Y=              1.2497    Z=             -0.0303  Tot=              1.2536
 Quadrupole moment (field-independent basis, Debye-Ang):
   XX=           -147.5046   YY=           -154.9966   ZZ=           -168.0162
   XY=             -0.0415   XZ=             -0.9901   YZ=             -1.7888

 Summary of Natural Population Analysis:

                                       Natural Population
                Natural  -----------------------------------------------
    Atom  No    Charge         Core      Valence    Rydberg      Total
 -----------------------------------------------------------------------
      P    1    1.06533      9.99676     3.88942    0.04849    13.93467
      C    2   -0.79576      1.99943     4.77358    0.02275     6.79576
      H    3    0.25416      0.00000     0.74268    0.00316     0.74584
     Rh    4   -0.47001     35.98535     9.45718    0.02748    45.47001
      C    5   -0.17322      1.99908     4.15369    0.02045     6.17322
      C    6   -0.15539      1.99909     4.13547    0.02084     6.15539
      C    7   -0.17523      1.99907     4.15641    0.01974     6.17523
      C    8   -0.15769      1.99908     4.13880    0.01980     6.15769
      H    9    0.22796      0.00000     0.76976    0.00229     0.77204
      C   10   -0.42696      1.99936     4.41556    0.01204     6.42696
      H   11    0.22636      0.00000     0.77168    0.00196     0.77364
      C   12   -0.42354      1.99936     4.41162    0.01256     6.42354
      C   13   -0.42367      1.99936     4.41241    0.01190     6.42367
      H   14    0.22372      0.00000     0.77380    0.00248     0.77628
      H   15    0.23435      0.00000     0.76373    0.00191     0.76565
      C   16   -0.42038      1.99935     4.40864    0.01239     6.42038
      H   17    0.21662      0.00000     0.78147    0.00191     0.78338
      H   18    0.23025      0.00000     0.76833    0.00141     0.76975
      H   19    0.23768      0.00000     0.76056    0.00176     0.76232
      H   20    0.21962      0.00000     0.77889    0.00149     0.78038
      H   21    0.22933      0.00000     0.76927    0.00140     0.77067
      H   22    0.21587      0.00000     0.78223    0.00190     0.78413
      H   23    0.23675      0.00000     0.76149    0.00177     0.76325
      H   24    0.21860      0.00000     0.77991    0.00150     0.78140
      C   25   -0.40056      1.99939     4.38943    0.01173     6.40056
      H   26    0.21199      0.00000     0.78618    0.00183     0.78801
      H   27    0.23048      0.00000     0.76755    0.00196     0.76952
      C   28   -0.39402      1.99943     4.38503    0.00956     6.39402
      H   29    0.20161      0.00000     0.79666    0.00173     0.79839
      H   30    0.23108      0.00000     0.76752    0.00140     0.76892
      C   31   -0.65975      1.99940     4.64830    0.01205     6.65975
      H   32    0.24069      0.00000     0.75806    0.00125     0.75931
      H   33    0.23095      0.00000     0.76715    0.00190     0.76905
      C   34   -0.34561      1.99900     4.32490    0.02171     6.34561
      C   35   -0.18622      1.99910     4.17192    0.01520     6.18622
      C   36   -0.18832      1.99910     4.17353    0.01569     6.18832
      C   37   -0.19410      1.99920     4.18030    0.01460     6.19410
      H   38    0.21676      0.00000     0.78140    0.00184     0.78324
      C   39   -0.18825      1.99920     4.17447    0.01458     6.18825
      H   40    0.20817      0.00000     0.78960    0.00223     0.79183
      C   41   -0.17343      1.99921     4.15964    0.01458     6.17343
      H   42    0.22183      0.00000     0.77695    0.00123     0.77817
      H   43    0.22416      0.00000     0.77461    0.00123     0.77584
      H   44    0.22446      0.00000     0.77438    0.00117     0.77554
      C   45   -0.20848      1.99936     4.19405    0.01507     6.20848
      C   46   -0.22296      1.99936     4.20840    0.01520     6.22296
      H   47    0.18147      0.00000     0.81535    0.00318     0.81853
      H   48    0.20901      0.00000     0.78892    0.00207     0.79099
      H   49    0.21799      0.00000     0.77998    0.00203     0.78201
      H   50    0.17470      0.00000     0.82193    0.00337     0.82530
      P   51    1.54705      9.99598     3.38471    0.07225    13.45295
      N   52   -0.72413      1.99957     5.70384    0.02072     7.72413
      N   53   -0.70363      1.99958     5.68381    0.02024     7.70363
      C   54   -0.40150      1.99937     4.38925    0.01288     6.40150
      H   55    0.21156      0.00000     0.78660    0.00184     0.78844
      H   56    0.17812      0.00000     0.81917    0.00272     0.82188
      H   57    0.21111      0.00000     0.78737    0.00152     0.78889
      C   58   -0.39202      1.99937     4.37986    0.01279     6.39202
      H   59    0.20512      0.00000     0.79294    0.00194     0.79488
      H   60    0.18239      0.00000     0.81495    0.00266     0.81761
      H   61    0.20753      0.00000     0.79082    0.00165     0.79247
 =======================================================================
   * Total *    1.00000    103.96092   149.44613    0.59295   254.00000

 Normal termination of Gaussian 16 at Wed Jan 22 01:56:48 2025.
