 Gaussian 16, Revision B.01,
 Gaussian 16:  ES64L-G16RevB.01 20-Dec-2017

 ------------------------------------------
 # nmr=giao b3lyp/genecp pop=nbo scfcyc=200
 ------------------------------------------

 ---------
 MS-22_SPE
 ---------
 Symbolic Z-matrix:
 Charge =  1 Multiplicity = 1

                         Standard orientation:
 ---------------------------------------------------------------------
 Center     Atomic      Atomic             Coordinates (Angstroms)
 Number     Number       Type             X           Y           Z
 ---------------------------------------------------------------------
      1         15           0       -1.234719   -0.485644    0.169050
      2         15           0        1.217037    0.869334    0.060840
      3          6           0       -1.891507   -0.896916    1.837930
      4          6           0       -1.220094   -1.834184    2.628250
      5          1           0       -0.324003   -2.309451    2.249780
      6          6           0       -1.694293   -2.153516    3.897290
      7          1           0       -1.169421   -2.883854    4.500290
      8          6           0       -2.841835   -1.539160    4.385490
      9          1           0       -3.214254   -1.790661    5.370700
     10          6           0       -3.513738   -0.600692    3.605510
     11          1           0       -4.407280   -0.120625    3.984930
     12          6           0       -3.044240   -0.276860    2.338320
     13          1           0       -3.564532    0.459638    1.739510
     14          6           0       -2.655008   -0.623749   -0.998170
     15          6           0       -3.730695   -1.472443   -0.721010
     16          1           0       -3.793254   -1.985463    0.229280
     17          6           0       -4.739505   -1.657766   -1.661890
     18          1           0       -5.570793   -2.312229   -1.431390
     19          6           0       -4.682937   -1.006096   -2.888300
     20          1           0       -5.469717   -1.150178   -3.617880
     21          6           0       -3.607280   -0.170582   -3.176230
     22          1           0       -3.554312    0.337878   -4.130840
     23          6           0       -2.595491    0.014041   -2.242130
     24          1           0       -1.763813    0.660674   -2.492850
     25          6           0       -0.619805    1.301778    0.201140
     26          1           0       -0.848626    1.704387   -0.789950
     27          6           0       -1.127038    2.329306    1.210280
     28          1           0       -1.158477    1.916356    2.218280
     29          1           0       -0.411551    3.163759    1.233010
     30          6           0        2.105435    1.207577    1.640280
     31          6           0        1.514976    0.910125    2.873470
     32          1           0        0.497348    0.547192    2.925540
     33          6           0        2.233776    1.061558    4.053360
     34          1           0        1.759367    0.837726    5.000670
     35          6           0        3.556115    1.493012    4.019060
     36          1           0        4.114454    1.609604    4.939210
     37          6           0        4.158404    1.767854    2.796460
     38          1           0        5.189352    2.096907    2.759330
     39          6           0        3.441394    1.624142    1.613110
     40          1           0        3.927613    1.845433    0.672140
     41          6           0        1.873573    2.073456   -1.170360
     42          6           0        2.142788    3.404647   -0.830800
     43          1           0        2.045667    3.739667    0.193870
     44          6           0        2.551245    4.305989   -1.806240
     45          1           0        2.762132    5.332459   -1.533330
     46          6           0        2.690806    3.892869   -3.128650
     47          1           0        3.012254    4.597560   -3.885180
     48          6           0        2.416901    2.574888   -3.475190
     49          1           0        2.523022    2.249389   -4.502450
     50          6           0        2.009664    1.668487   -2.500890
     51          1           0        1.790247    0.644316   -2.775040
     52         45           0        0.844644   -1.392727   -0.464960
     53          6           0        0.384312   -3.634829   -0.427510
     54          6           0        0.111060   -3.136810   -1.683980
     55          6           0        2.792696   -1.962721   -1.544380
     56          6           0        2.932807   -2.207320   -0.195890
     57          6           0        1.624094   -4.416025   -0.032940
     58          1           0       -0.455388   -3.718252    0.253620
     59          1           0       -0.921441   -2.883923   -1.902160
     60          6           0        1.003860   -3.202687   -2.898390
     61          6           0        2.507780   -3.004712   -2.609940
     62          1           0        3.176303   -1.016259   -1.907500
     63          6           0        2.769321   -3.532141    0.507270
     64          1           0        3.429994   -1.445868    0.396800
     65          1           0        1.349297   -5.133865    0.741830
     66          1           0        1.968966   -5.009803   -0.879120
     67          1           0        0.848564   -4.158507   -3.414720
     68          1           0        0.668388   -2.432188   -3.596170
     69          1           0        2.969233   -3.951470   -2.330380
     70          1           0        2.997819   -2.696710   -3.535220
     71          1           0        2.593771   -3.324551    1.565170
     72          1           0        3.715373   -4.086717    0.467030
     73          7           0       -2.547442    3.554371   -0.295020
     74          6           0       -2.211247    4.954573   -0.037260
     75          1           0       -2.220999    5.508233   -0.976360
     76          1           0       -2.923369    5.432950    0.655420
     77          1           0       -1.209187    5.032666    0.384380
     78          6           0       -3.871082    3.422087   -0.896780
     79          1           0       -4.073878    2.372466   -1.096210
     80          1           0       -4.668543    3.819854   -0.249230
     81          1           0       -3.890774    3.972597   -1.838230
     82          7           0       -2.484910    2.750832    0.883300
     83          1           0       -2.894111    3.246720    1.678480
 ---------------------------------------------------------------------

 SCF Done:  E(RB3LYP) =  -2300.28262258     A.U. after   16 cycles

      1  P    Isotropic =   294.7082   Anisotropy =    95.1028

      2  P    Isotropic =   295.0548   Anisotropy =   106.2184

      3  C    Isotropic =    51.4925   Anisotropy =   166.4440

      4  C    Isotropic =    39.6865   Anisotropy =   181.7698

      5  H    Isotropic =    23.1770   Anisotropy =     9.8787

      6  C    Isotropic =    49.2062   Anisotropy =   187.6621

      7  H    Isotropic =    23.8993   Anisotropy =     6.8555

      8  C    Isotropic =    44.2252   Anisotropy =   199.1335

      9  H    Isotropic =    23.7779   Anisotropy =     3.6166

     10  C    Isotropic =    48.9304   Anisotropy =   188.7103

     11  H    Isotropic =    24.0191   Anisotropy =     6.5175

     12  C    Isotropic =    41.4984   Anisotropy =   196.0553

     13  H    Isotropic =    23.5129   Anisotropy =    10.1615

     14  C    Isotropic =    41.9859   Anisotropy =   173.9139

     15  C    Isotropic =    48.2779   Anisotropy =   188.4723

     16  H    Isotropic =    24.8665   Anisotropy =    12.4742

     17  C    Isotropic =    49.0457   Anisotropy =   189.1720

     18  H    Isotropic =    24.3392   Anisotropy =     6.2824

     19  C    Isotropic =    47.3433   Anisotropy =   194.4272

     20  H    Isotropic =    24.1557   Anisotropy =     3.6099

     21  C    Isotropic =    49.1360   Anisotropy =   189.3798

     22  H    Isotropic =    24.0841   Anisotropy =     6.8409

     23  C    Isotropic =    48.9725   Anisotropy =   190.6970

     24  H    Isotropic =    24.0122   Anisotropy =     9.5981

     25  C    Isotropic =   111.5204   Anisotropy =    57.3459

     26  H    Isotropic =    26.6586   Anisotropy =     5.6131

     27  C    Isotropic =   134.4140   Anisotropy =    44.3395

     28  H    Isotropic =    28.9818   Anisotropy =     3.5346

     29  H    Isotropic =    29.0033   Anisotropy =     5.1247

     30  C    Isotropic =    46.8928   Anisotropy =   165.3752

     31  C    Isotropic =    47.6383   Anisotropy =   185.7027

     32  H    Isotropic =    24.8892   Anisotropy =     7.8724

     33  C    Isotropic =    49.7749   Anisotropy =   188.3451

     34  H    Isotropic =    24.4746   Anisotropy =     8.1364

     35  C    Isotropic =    47.0934   Anisotropy =   195.0136

     36  H    Isotropic =    24.1930   Anisotropy =     4.0162

     37  C    Isotropic =    48.5468   Anisotropy =   190.2419

     38  H    Isotropic =    24.2866   Anisotropy =     6.1209

     39  C    Isotropic =    47.3292   Anisotropy =   189.2214

     40  H    Isotropic =    24.6893   Anisotropy =    11.9279

     41  C    Isotropic =    44.4909   Anisotropy =   177.7449

     42  C    Isotropic =    46.2728   Anisotropy =   187.6885

     43  H    Isotropic =    24.2545   Anisotropy =    11.3623

     44  C    Isotropic =    48.6662   Anisotropy =   189.5702

     45  H    Isotropic =    24.1163   Anisotropy =     6.1782

     46  C    Isotropic =    44.9057   Anisotropy =   197.8354

     47  H    Isotropic =    23.8773   Anisotropy =     3.7143

     48  C    Isotropic =    48.5828   Anisotropy =   188.5903

     49  H    Isotropic =    23.9055   Anisotropy =     6.8886

     50  C    Isotropic =    43.2394   Anisotropy =   179.0100

     51  H    Isotropic =    23.3490   Anisotropy =    10.1762

     52  Rh   Isotropic =  -304.1266   Anisotropy =   333.2182

     53  C    Isotropic =    80.3510   Anisotropy =   119.2614

     54  C    Isotropic =    72.5099   Anisotropy =   123.4231

     55  C    Isotropic =    78.7493   Anisotropy =   121.2311

     56  C    Isotropic =    73.3159   Anisotropy =   122.2027

     57  C    Isotropic =   154.0323   Anisotropy =    24.7123

     58  H    Isotropic =    27.0422   Anisotropy =     6.0867

     59  H    Isotropic =    27.1538   Anisotropy =     4.0677

     60  C    Isotropic =   148.0149   Anisotropy =    29.0757

     61  C    Isotropic =   154.0783   Anisotropy =    24.6986

     62  H    Isotropic =    26.8359   Anisotropy =     6.2270

     63  C    Isotropic =   148.0376   Anisotropy =    28.6624

     64  H    Isotropic =    26.8497   Anisotropy =     3.6724

     65  H    Isotropic =    29.8384   Anisotropy =    11.5476

     66  H    Isotropic =    29.7769   Anisotropy =     9.9814

     67  H    Isotropic =    29.2668   Anisotropy =    12.5553

     68  H    Isotropic =    29.1604   Anisotropy =     7.1768

     69  H    Isotropic =    29.7470   Anisotropy =     9.9097

     70  H    Isotropic =    29.7726   Anisotropy =    11.6305

     71  H    Isotropic =    29.3328   Anisotropy =     7.1347

     72  H    Isotropic =    29.2810   Anisotropy =    12.7352

     73  N    Isotropic =   174.1276   Anisotropy =   102.8286

     74  C    Isotropic =   141.2960   Anisotropy =    68.1359

     75  H    Isotropic =    29.8747   Anisotropy =     9.9797

     76  H    Isotropic =    30.6126   Anisotropy =    10.0712

     77  H    Isotropic =    29.4746   Anisotropy =     6.9946

     78  C    Isotropic =   135.8620   Anisotropy =    71.1316

     79  H    Isotropic =    30.3914   Anisotropy =     8.5994

     80  H    Isotropic =    30.2993   Anisotropy =     9.2165

     81  H    Isotropic =    29.9969   Anisotropy =     9.6015

     82  N    Isotropic =   135.4946   Anisotropy =   105.1158

     83  H    Isotropic =    30.6042   Anisotropy =     7.9951

 The electronic state is 1-A.
 Alpha  occ. eigenvalues --  -77.23426 -77.23221 -14.42589 -14.42496 -10.30442
 Alpha  occ. eigenvalues --  -10.30158 -10.29518 -10.29408 -10.29351 -10.29162
 Alpha  occ. eigenvalues --  -10.28708 -10.28637 -10.28423 -10.28379 -10.28251
 Alpha  occ. eigenvalues --  -10.28195 -10.28190 -10.28050 -10.27931 -10.27919
 Alpha  occ. eigenvalues --  -10.27831 -10.27653 -10.27634 -10.27538 -10.27506
 Alpha  occ. eigenvalues --  -10.27475 -10.27449 -10.27445 -10.27360 -10.27345
 Alpha  occ. eigenvalues --  -10.27280 -10.27203 -10.27195 -10.27162 -10.27126
 Alpha  occ. eigenvalues --  -10.27025 -10.26980 -10.26973 -10.26962 -10.26591
 Alpha  occ. eigenvalues --   -6.69383  -6.69183  -4.85653  -4.85622  -4.85452
 Alpha  occ. eigenvalues --   -4.85415  -4.85285  -4.85093  -3.31048  -2.07932
 Alpha  occ. eigenvalues --   -2.07281  -2.04527  -1.07489  -0.96699  -0.96463
 Alpha  occ. eigenvalues --   -0.95922  -0.95748  -0.94045  -0.93132  -0.88792
 Alpha  occ. eigenvalues --   -0.88773  -0.87662  -0.87051  -0.85240  -0.85187
 Alpha  occ. eigenvalues --   -0.85083  -0.84948  -0.84703  -0.84534  -0.84044
 Alpha  occ. eigenvalues --   -0.79977  -0.79419  -0.77472  -0.76848  -0.75407
 Alpha  occ. eigenvalues --   -0.72156  -0.71208  -0.71011  -0.70817  -0.70575
 Alpha  occ. eigenvalues --   -0.70225  -0.70080  -0.69929  -0.69134  -0.66852
 Alpha  occ. eigenvalues --   -0.65445  -0.65376  -0.62515  -0.62166  -0.61824
 Alpha  occ. eigenvalues --   -0.61236  -0.60392  -0.59616  -0.59595  -0.58105
 Alpha  occ. eigenvalues --   -0.56768  -0.56388  -0.56258  -0.55934  -0.55878
 Alpha  occ. eigenvalues --   -0.55789  -0.55676  -0.55298  -0.55179  -0.55087
 Alpha  occ. eigenvalues --   -0.54469  -0.53347  -0.53312  -0.52931  -0.52680
 Alpha  occ. eigenvalues --   -0.52539  -0.52352  -0.52226  -0.52208  -0.52193
 Alpha  occ. eigenvalues --   -0.51308  -0.51082  -0.50551  -0.49174  -0.48500
 Alpha  occ. eigenvalues --   -0.48000  -0.47936  -0.47769  -0.47544  -0.47453
 Alpha  occ. eigenvalues --   -0.47084  -0.47015  -0.46239  -0.45830  -0.45682
 Alpha  occ. eigenvalues --   -0.45545  -0.45373  -0.44987  -0.44903  -0.44729
 Alpha  occ. eigenvalues --   -0.44499  -0.43547  -0.43158  -0.42994  -0.42741
 Alpha  occ. eigenvalues --   -0.42408  -0.42202  -0.40933  -0.37700  -0.37276
 Alpha  occ. eigenvalues --   -0.36623  -0.36165  -0.35984  -0.35946  -0.35645
 Alpha  occ. eigenvalues --   -0.35584  -0.35354  -0.34892  -0.34236  -0.33797
 Alpha  occ. eigenvalues --   -0.33543  -0.33068  -0.32040  -0.30229
 Alpha virt. eigenvalues --   -0.16051  -0.14433  -0.13682  -0.13104  -0.12367
 Alpha virt. eigenvalues --   -0.11989  -0.11538  -0.10738  -0.10561  -0.10013
 Alpha virt. eigenvalues --   -0.08916  -0.07382  -0.06561  -0.05996  -0.05556

 Mulliken charges:
               1
     1  P    0.436635
     2  P    0.411849
     3  C   -0.375275
     4  C   -0.016992
     5  H    0.174859
     6  C   -0.120768
     7  H    0.131029
     8  C   -0.085570
     9  H    0.136956
    10  C   -0.093169
    11  H    0.135397
    12  C   -0.051751
    13  H    0.187526
    14  C   -0.159052
    15  C   -0.078109
    16  H    0.160568
    17  C   -0.092683
    18  H    0.133731
    19  C   -0.107092
    20  H    0.135989
    21  C   -0.089356
    22  H    0.128698
    23  C   -0.090563
    24  H    0.137074
    25  C   -0.468276
    26  H    0.241728
    27  C   -0.238279
    28  H    0.152948
    29  H    0.143126
    30  C   -0.160492
    31  C   -0.069905
    32  H    0.178779
    33  C   -0.138728
    34  H    0.129429
    35  C   -0.085960
    36  H    0.137599
    37  C   -0.103724
    38  H    0.134284
    39  C   -0.092705
    40  H    0.164593
    41  C   -0.221740
    42  C   -0.093915
    43  H    0.158017
    44  C   -0.086878
    45  H    0.134363
    46  C   -0.093560
    47  H    0.138590
    48  C   -0.105024
    49  H    0.130143
    50  C   -0.081431
    51  H    0.177401
    52  Rh  -0.575409
    53  C   -0.049479
    54  C   -0.089799
    55  C   -0.051004
    56  C   -0.096995
    57  C   -0.352719
    58  H    0.193719
    59  H    0.208936
    60  C   -0.227705
    61  C   -0.343879
    62  H    0.195704
    63  C   -0.217061
    64  H    0.196626
    65  H    0.166642
    66  H    0.165649
    67  H    0.170644
    68  H    0.129228
    69  H    0.165814
    70  H    0.166073
    71  H    0.130793
    72  H    0.171661
    73  N   -0.170019
    74  C   -0.274657
    75  H    0.140012
    76  H    0.108162
    77  H    0.124983
    78  C   -0.267106
    79  H    0.158509
    80  H    0.100955
    81  H    0.129432
    82  N   -0.234140
    83  H    0.196116
 Sum of Mulliken charges =   1.00000

 Dipole moment (field-independent basis, Debye):
    X=              0.2225    Y=              0.7279    Z=              0.4770  Tot=              0.8983
 Quadrupole moment (field-independent basis, Debye-Ang):
   XX=           -221.3588   YY=           -220.1912   ZZ=           -219.9427
   XY=              0.9806   XZ=             -2.4378   YZ=             -2.4199

 Summary of Natural Population Analysis:

                                       Natural Population
                Natural  -----------------------------------------------
    Atom  No    Charge         Core      Valence    Rydberg      Total
 -----------------------------------------------------------------------
      P    1    1.13101      9.99636     3.82006    0.05256    13.86899
      P    2    1.12452      9.99639     3.82664    0.05245    13.87548
      C    3   -0.35930      1.99898     4.33623    0.02408     6.35930
      C    4   -0.18599      1.99910     4.17139    0.01551     6.18599
      H    5    0.22311      0.00000     0.77481    0.00207     0.77689
      C    6   -0.20232      1.99919     4.18849    0.01464     6.20232
      H    7    0.22126      0.00000     0.77750    0.00124     0.77874
      C    8   -0.17414      1.99921     4.16039    0.01454     6.17414
      H    9    0.22256      0.00000     0.77628    0.00116     0.77744
      C   10   -0.19842      1.99919     4.18430    0.01493     6.19842
      H   11    0.22234      0.00000     0.77640    0.00127     0.77766
      C   12   -0.19335      1.99910     4.17746    0.01680     6.19335
      H   13    0.23703      0.00000     0.76000    0.00297     0.76297
      C   14   -0.33639      1.99898     4.31346    0.02396     6.33639
      C   15   -0.19827      1.99909     4.18419    0.01499     6.19827
      H   16    0.22239      0.00000     0.77590    0.00170     0.77761
      C   17   -0.19047      1.99920     4.17654    0.01473     6.19047
      H   18    0.22202      0.00000     0.77676    0.00122     0.77798
      C   19   -0.18521      1.99920     4.17124    0.01477     6.18521
      H   20    0.22212      0.00000     0.77670    0.00118     0.77788
      C   21   -0.19347      1.99919     4.17960    0.01468     6.19347
      H   22    0.22045      0.00000     0.77831    0.00125     0.77955
      C   23   -0.19544      1.99909     4.18136    0.01500     6.19544
      H   24    0.21183      0.00000     0.78620    0.00196     0.78817
      C   25   -0.75678      1.99937     4.73101    0.02641     6.75678
      H   26    0.28297      0.00000     0.71345    0.00358     0.71703
      C   27   -0.23296      1.99927     4.21491    0.01879     6.23296
      H   28    0.21004      0.00000     0.78734    0.00263     0.78996
      H   29    0.18142      0.00000     0.81467    0.00391     0.81858
      C   30   -0.34165      1.99898     4.31933    0.02333     6.34165
      C   31   -0.19761      1.99909     4.18351    0.01500     6.19761
      H   32    0.21423      0.00000     0.78360    0.00217     0.78577
      C   33   -0.19158      1.99920     4.17782    0.01457     6.19158
      H   34    0.22048      0.00000     0.77827    0.00125     0.77952
      C   35   -0.18319      1.99920     4.16931    0.01468     6.18319
      H   36    0.22242      0.00000     0.77640    0.00117     0.77758
      C   37   -0.19059      1.99920     4.17668    0.01471     6.19059
      H   38    0.22250      0.00000     0.77628    0.00122     0.77750
      C   39   -0.20147      1.99910     4.18721    0.01516     6.20147
      H   40    0.22208      0.00000     0.77617    0.00175     0.77792
      C   41   -0.34490      1.99899     4.32244    0.02347     6.34490
      C   42   -0.19244      1.99909     4.17732    0.01602     6.19244
      H   43    0.21856      0.00000     0.77936    0.00208     0.78144
      C   44   -0.19244      1.99920     4.17865    0.01460     6.19244
      H   45    0.22227      0.00000     0.77649    0.00124     0.77773
      C   46   -0.17590      1.99921     4.16216    0.01454     6.17590
      H   47    0.22279      0.00000     0.77603    0.00117     0.77721
      C   48   -0.19537      1.99920     4.18161    0.01456     6.19537
      H   49    0.22097      0.00000     0.77780    0.00123     0.77903
      C   50   -0.18966      1.99910     4.17514    0.01543     6.18966
      H   51    0.22018      0.00000     0.77784    0.00198     0.77982
     Rh   52   -0.39904     35.98599     9.38447    0.02857    45.39904
      C   53   -0.18373      1.99907     4.16515    0.01951     6.18373
      C   54   -0.15408      1.99908     4.13541    0.01959     6.15408
      C   55   -0.18091      1.99907     4.16221    0.01964     6.18091
      C   56   -0.15650      1.99908     4.13771    0.01971     6.15650
      C   57   -0.42345      1.99936     4.41225    0.01184     6.42345
      H   58    0.22514      0.00000     0.77287    0.00199     0.77486
      H   59    0.23281      0.00000     0.76519    0.00199     0.76719
      C   60   -0.41796      1.99935     4.40601    0.01260     6.41796
      C   61   -0.42385      1.99936     4.41263    0.01186     6.42385
      H   62    0.22490      0.00000     0.77297    0.00213     0.77510
      C   63   -0.41844      1.99935     4.40649    0.01261     6.41844
      H   64    0.22989      0.00000     0.76802    0.00209     0.77011
      H   65    0.22709      0.00000     0.77142    0.00149     0.77291
      H   66    0.21485      0.00000     0.78317    0.00198     0.78515
      H   67    0.23362      0.00000     0.76447    0.00190     0.76638
      H   68    0.21607      0.00000     0.78235    0.00158     0.78393
      H   69    0.21486      0.00000     0.78315    0.00199     0.78514
      H   70    0.22687      0.00000     0.77163    0.00151     0.77313
      H   71    0.21605      0.00000     0.78237    0.00157     0.78395
      H   72    0.23386      0.00000     0.76425    0.00190     0.76614
      N   73   -0.28000      1.99958     5.25738    0.02304     7.28000
      C   74   -0.42398      1.99937     4.41433    0.01027     6.42398
      H   75    0.21010      0.00000     0.78844    0.00146     0.78990
      H   76    0.16564      0.00000     0.83016    0.00421     0.83436
      H   77    0.19414      0.00000     0.80441    0.00145     0.80586
      C   78   -0.40356      1.99937     4.39222    0.01197     6.40356
      H   79    0.20972      0.00000     0.78836    0.00192     0.79028
      H   80    0.16445      0.00000     0.83173    0.00383     0.83555
      H   81    0.19968      0.00000     0.79887    0.00144     0.80032
      N   82   -0.46802      1.99955     5.44564    0.02284     7.46802
      H   83    0.33157      0.00000     0.66108    0.00736     0.66843
 =======================================================================
   * Total *    1.00000    131.94805   213.19778    0.85416   346.00000

 Normal termination of Gaussian 16 at Wed Jan 22 03:46:18 2025.
