 Gaussian 16, Revision B.01,
 Gaussian 16:  ES64L-G16RevB.01 20-Dec-2017

 ------------------------------------------
 # nmr=giao b3lyp/genecp pop=nbo scfcyc=200
 ------------------------------------------

 ---------
 MS-36_SPE
 ---------
 Symbolic Z-matrix:
 Charge =  1 Multiplicity = 1

                         Standard orientation:
 ---------------------------------------------------------------------
 Center     Atomic      Atomic             Coordinates (Angstroms)
 Number     Number       Type             X           Y           Z
 ---------------------------------------------------------------------
      1         15           0       -0.215410   -1.193100    0.211700
      2         15           0        0.800880    1.424310    0.128160
      3          6           0       -0.176540   -2.018440    1.855770
      4          6           0        1.056040   -2.341980    2.430470
      5          1           0        1.971110   -2.101880    1.904010
      6          6           0        1.111060   -2.963780    3.674420
      7          1           0        2.070549   -3.213790    4.109570
      8          6           0       -0.064171   -3.267380    4.352220
      9          1           0       -0.022521   -3.755900    5.317740
     10          6           0       -1.296010   -2.945250    3.787120
     11          1           0       -2.212161   -3.181670    4.314040
     12          6           0       -1.357320   -2.323350    2.545920
     13          1           0       -2.315430   -2.067680    2.112330
     14          6           0       -1.412960   -2.145080   -0.817170
     15          6           0       -1.636781   -3.503810   -0.575960
     16          1           0       -1.178911   -3.992150    0.273800
     17          6           0       -2.462621   -4.240260   -1.419920
     18          1           0       -2.632571   -5.290330   -1.217380
     19          6           0       -3.069171   -3.632809   -2.513170
     20          1           0       -3.714251   -4.206799   -3.166220
     21          6           0       -2.838730   -2.284020   -2.768180
     22          1           0       -3.303750   -1.804019   -3.620110
     23          6           0       -2.008640   -1.546910   -1.932700
     24          1           0       -1.830500   -0.504180   -2.164720
     25          6           0       -0.860670    0.568460    0.442360
     26          1           0       -1.383320    0.782480   -0.493180
     27          6           0       -1.774090    0.966320    1.604670
     28          1           0       -1.342310    0.638300    2.549180
     29          1           0       -1.813450    2.067400    1.639650
     30          6           0        1.495510    2.137010    1.679420
     31          6           0        1.406810    1.445470    2.892490
     32          1           0        0.863020    0.512990    2.958830
     33          6           0        2.031490    1.939320    4.031700
     34          1           0        1.944160    1.398650    4.965810
     35          6           0        2.768550    3.117850    3.972970
     36          1           0        3.254880    3.500270    4.861360
     37          6           0        2.882190    3.798700    2.766050
     38          1           0        3.459940    4.712720    2.708990
     39          6           0        2.253400    3.312590    1.624520
     40          1           0        2.351590    3.859000    0.695760
     41          6           0        0.362590    2.856510   -0.946490
     42          6           0       -0.222200    4.017290   -0.425790
     43          1           0       -0.356580    4.132230    0.642040
     44          6           0       -0.625470    5.038810   -1.277110
     45          1           0       -1.073390    5.934430   -0.865100
     46          6           0       -0.454810    4.913450   -2.653390
     47          1           0       -0.768100    5.712840   -3.312960
     48          6           0        0.117480    3.760620   -3.178430
     49          1           0        0.250820    3.658250   -4.248090
     50          6           0        0.524290    2.735700   -2.329400
     51          1           0        0.962500    1.835740   -2.741950
     52         45           0        1.842000   -0.512430   -0.715290
     53          6           0        2.881830   -2.530040   -0.999710
     54          6           0        2.167140   -2.222870   -2.138550
     55          6           0        3.525260    0.370080   -2.008090
     56          6           0        3.994020    0.165930   -0.728730
     57          6           0        4.381280   -2.375280   -0.824910
     58          1           0        2.393699   -3.179420   -0.281300
     59          1           0        1.181780   -2.666430   -2.238910
     60          6           0        2.706940   -1.614340   -3.409300
     61          6           0        3.786130   -0.529480   -3.201910
     62          1           0        3.178240    1.369620   -2.243250
     63          6           0        4.799830   -1.010490   -0.235740
     64          1           0        3.996390    1.020640   -0.059500
     65          1           0        4.735239   -3.161610   -0.156010
     66          1           0        4.881920   -2.547720   -1.777350
     67          1           0        3.099950   -2.408620   -4.056560
     68          1           0        1.863510   -1.181650   -3.951930
     69          1           0        4.771290   -0.985990   -3.109160
     70          1           0        3.828430    0.089760   -4.099610
     71          1           0        4.703400   -1.044330    0.851760
     72          1           0        5.864500   -0.832840   -0.433360
     73          6           0       -4.003860    1.039411    0.545620
     74          1           0       -4.111800    2.106181    0.789830
     75          1           0       -3.592730    0.983881   -0.464410
     76          6           0       -5.363610    0.342991    0.535400
     77          1           0       -5.781880    0.335871    1.561460
     78          1           0       -5.198400   -0.699129    0.256380
     79          7           0       -6.294440    0.930681   -0.419440
     80          6           0       -7.363230    0.002571   -0.771330
     81          1           0       -8.005780   -0.261689    0.086430
     82          1           0       -7.996170    0.449151   -1.539490
     83          1           0       -6.939370   -0.917149   -1.177150
     84          6           0       -6.841890    2.206461    0.028290
     85          1           0       -7.490280    2.616531   -0.746900
     86          1           0       -7.434290    2.111851    0.955570
     87          1           0       -6.045890    2.929491    0.205270
     88          7           0       -3.096920    0.365521    1.479330
     89          1           0       -3.529970    0.324621    2.395140
 ---------------------------------------------------------------------

 SCF Done:  E(RB3LYP) =  -2378.95133235     A.U. after   16 cycles

      1  P    Isotropic =   293.2611   Anisotropy =    90.7803

      2  P    Isotropic =   294.7127   Anisotropy =   103.0228

      3  C    Isotropic =    51.5902   Anisotropy =   165.4460

      4  C    Isotropic =    39.4033   Anisotropy =   181.6784

      5  H    Isotropic =    23.0992   Anisotropy =     9.8128

      6  C    Isotropic =    49.2662   Anisotropy =   187.4600

      7  H    Isotropic =    23.8972   Anisotropy =     6.8416

      8  C    Isotropic =    44.1353   Anisotropy =   199.3398

      9  H    Isotropic =    23.7717   Anisotropy =     3.6297

     10  C    Isotropic =    49.0312   Anisotropy =   188.5872

     11  H    Isotropic =    24.0165   Anisotropy =     6.6026

     12  C    Isotropic =    41.2067   Anisotropy =   196.3032

     13  H    Isotropic =    23.3309   Anisotropy =     9.7811

     14  C    Isotropic =    42.3378   Anisotropy =   174.6695

     15  C    Isotropic =    48.3075   Anisotropy =   188.5207

     16  H    Isotropic =    24.8877   Anisotropy =    12.3972

     17  C    Isotropic =    48.9285   Anisotropy =   189.4451

     18  H    Isotropic =    24.3412   Anisotropy =     6.1902

     19  C    Isotropic =    47.2626   Anisotropy =   194.3529

     20  H    Isotropic =    24.1517   Anisotropy =     3.5295

     21  C    Isotropic =    49.0887   Anisotropy =   190.3531

     22  H    Isotropic =    24.0699   Anisotropy =     6.5109

     23  C    Isotropic =    50.0648   Anisotropy =   189.4476

     24  H    Isotropic =    24.1485   Anisotropy =     9.6819

     25  C    Isotropic =   111.2022   Anisotropy =    57.6691

     26  H    Isotropic =    27.3313   Anisotropy =     5.4525

     27  C    Isotropic =   132.8289   Anisotropy =    48.8933

     28  H    Isotropic =    28.5644   Anisotropy =     4.6513

     29  H    Isotropic =    29.2633   Anisotropy =     5.0708

     30  C    Isotropic =    47.1674   Anisotropy =   164.0257

     31  C    Isotropic =    47.5581   Anisotropy =   185.8865

     32  H    Isotropic =    24.9212   Anisotropy =     7.6997

     33  C    Isotropic =    49.8708   Anisotropy =   188.2506

     34  H    Isotropic =    24.4915   Anisotropy =     8.2046

     35  C    Isotropic =    47.0888   Anisotropy =   195.2549

     36  H    Isotropic =    24.1931   Anisotropy =     4.0347

     37  C    Isotropic =    48.5252   Anisotropy =   190.3219

     38  H    Isotropic =    24.2881   Anisotropy =     6.1305

     39  C    Isotropic =    47.2280   Anisotropy =   189.2634

     40  H    Isotropic =    24.7076   Anisotropy =    11.9623

     41  C    Isotropic =    44.5074   Anisotropy =   177.1587

     42  C    Isotropic =    46.1953   Anisotropy =   188.0113

     43  H    Isotropic =    24.2586   Anisotropy =    11.4651

     44  C    Isotropic =    48.5059   Anisotropy =   190.1336

     45  H    Isotropic =    24.1108   Anisotropy =     6.0644

     46  C    Isotropic =    44.7306   Anisotropy =   198.6223

     47  H    Isotropic =    23.8560   Anisotropy =     3.6611

     48  C    Isotropic =    48.5008   Anisotropy =   188.9630

     49  H    Isotropic =    23.8995   Anisotropy =     6.8363

     50  C    Isotropic =    43.7113   Anisotropy =   178.8005

     51  H    Isotropic =    23.3723   Anisotropy =    10.1032

     52  Rh   Isotropic =  -304.2792   Anisotropy =   333.4557

     53  C    Isotropic =    80.2563   Anisotropy =   119.3898

     54  C    Isotropic =    72.5288   Anisotropy =   123.4587

     55  C    Isotropic =    78.7605   Anisotropy =   121.2691

     56  C    Isotropic =    73.3828   Anisotropy =   122.3312

     57  C    Isotropic =   154.0346   Anisotropy =    24.8475

     58  H    Isotropic =    27.0479   Anisotropy =     5.9716

     59  H    Isotropic =    27.0910   Anisotropy =     4.0694

     60  C    Isotropic =   147.9945   Anisotropy =    29.2971

     61  C    Isotropic =   154.0933   Anisotropy =    24.7349

     62  H    Isotropic =    26.8303   Anisotropy =     6.2216

     63  C    Isotropic =   148.0228   Anisotropy =    28.7507

     64  H    Isotropic =    26.8125   Anisotropy =     3.6848

     65  H    Isotropic =    29.8463   Anisotropy =    11.5397

     66  H    Isotropic =    29.7979   Anisotropy =     9.9607

     67  H    Isotropic =    29.2659   Anisotropy =    12.5327

     68  H    Isotropic =    29.1511   Anisotropy =     7.1957

     69  H    Isotropic =    29.7628   Anisotropy =     9.8911

     70  H    Isotropic =    29.7781   Anisotropy =    11.6376

     71  H    Isotropic =    29.3162   Anisotropy =     7.1809

     72  H    Isotropic =    29.2725   Anisotropy =    12.7648

     73  C    Isotropic =   134.2622   Anisotropy =    45.2062

     74  H    Isotropic =    29.6618   Anisotropy =     8.5670

     75  H    Isotropic =    29.7281   Anisotropy =     7.1226

     76  C    Isotropic =   122.6529   Anisotropy =    67.1231

     77  H    Isotropic =    30.3822   Anisotropy =     4.0687

     78  H    Isotropic =    30.0284   Anisotropy =     7.9051

     79  N    Isotropic =   216.5434   Anisotropy =    45.0758

     80  C    Isotropic =   135.8649   Anisotropy =    74.7158

     81  H    Isotropic =    30.1016   Anisotropy =     9.3821

     82  H    Isotropic =    29.6770   Anisotropy =    10.4423

     83  H    Isotropic =    29.9336   Anisotropy =     7.8272

     84  C    Isotropic =   140.5378   Anisotropy =    67.5906

     85  H    Isotropic =    29.7586   Anisotropy =    10.0659

     86  H    Isotropic =    30.4596   Anisotropy =     9.1344

     87  H    Isotropic =    29.6789   Anisotropy =     7.4080

     88  N    Isotropic =   206.7465   Anisotropy =    48.5860

     89  H    Isotropic =    31.7740   Anisotropy =    13.3961

 The electronic state is 1-A.
 Alpha  occ. eigenvalues --  -77.23559 -77.23313 -14.39869 -14.37895 -10.30536
 Alpha  occ. eigenvalues --  -10.30404 -10.29576 -10.29500 -10.29380 -10.29203
 Alpha  occ. eigenvalues --  -10.28783 -10.28710 -10.28494 -10.28450 -10.28279
 Alpha  occ. eigenvalues --  -10.28274 -10.28242 -10.28071 -10.27972 -10.27897
 Alpha  occ. eigenvalues --  -10.27894 -10.27677 -10.27629 -10.27624 -10.27593
 Alpha  occ. eigenvalues --  -10.27531 -10.27524 -10.27502 -10.27452 -10.27362
 Alpha  occ. eigenvalues --  -10.27302 -10.27260 -10.27226 -10.27218 -10.27111
 Alpha  occ. eigenvalues --  -10.27038 -10.27030 -10.27011 -10.26940 -10.26863
 Alpha  occ. eigenvalues --  -10.25254 -10.25123  -6.69513  -6.69276  -4.85786
 Alpha  occ. eigenvalues --   -4.85750  -4.85547  -4.85507  -4.85413  -4.85186
 Alpha  occ. eigenvalues --   -3.31141  -2.08022  -2.07377  -2.04620  -1.00906
 Alpha  occ. eigenvalues --   -0.98968  -0.96695  -0.96476  -0.95964  -0.95749
 Alpha  occ. eigenvalues --   -0.94111  -0.89817  -0.88840  -0.87721  -0.87099
 Alpha  occ. eigenvalues --   -0.85485  -0.85270  -0.85200  -0.85041  -0.84817
 Alpha  occ. eigenvalues --   -0.84730  -0.84527  -0.81886  -0.80030  -0.77531
 Alpha  occ. eigenvalues --   -0.77300  -0.76269  -0.75469  -0.72468  -0.71286
 Alpha  occ. eigenvalues --   -0.71034  -0.70911  -0.70696  -0.70287  -0.70144
 Alpha  occ. eigenvalues --   -0.69952  -0.69766  -0.66902  -0.65913  -0.65511
 Alpha  occ. eigenvalues --   -0.65390  -0.62509  -0.62188  -0.61866  -0.60953
 Alpha  occ. eigenvalues --   -0.60427  -0.59676  -0.58642  -0.56999  -0.56689
 Alpha  occ. eigenvalues --   -0.56417  -0.56252  -0.55988  -0.55896  -0.55800
 Alpha  occ. eigenvalues --   -0.55600  -0.55335  -0.55128  -0.54956  -0.54517
 Alpha  occ. eigenvalues --   -0.54303  -0.53379  -0.53026  -0.52810  -0.52520
 Alpha  occ. eigenvalues --   -0.52483  -0.52388  -0.52271  -0.52179  -0.51955
 Alpha  occ. eigenvalues --   -0.51172  -0.51014  -0.50579  -0.49989  -0.48544
 Alpha  occ. eigenvalues --   -0.48186  -0.47988  -0.47686  -0.47549  -0.47188
 Alpha  occ. eigenvalues --   -0.47108  -0.46638  -0.45998  -0.45832  -0.45752
 Alpha  occ. eigenvalues --   -0.45714  -0.45043  -0.45014  -0.44813  -0.44572
 Alpha  occ. eigenvalues --   -0.44429  -0.43715  -0.43622  -0.43203  -0.43055
 Alpha  occ. eigenvalues --   -0.42911  -0.42722  -0.42549  -0.42250  -0.41603
 Alpha  occ. eigenvalues --   -0.41012  -0.37772  -0.37322  -0.36678  -0.36217
 Alpha  occ. eigenvalues --   -0.36018  -0.36001  -0.35610  -0.35528  -0.35335
 Alpha  occ. eigenvalues --   -0.34934  -0.34289  -0.33754  -0.33316  -0.32475
 Alpha  occ. eigenvalues --   -0.30322  -0.28746
 Alpha virt. eigenvalues --   -0.16110  -0.14527  -0.13736  -0.13163  -0.12390
 Alpha virt. eigenvalues --   -0.12050  -0.11578  -0.10792  -0.10560  -0.10028
 Alpha virt. eigenvalues --   -0.08978  -0.07425  -0.06681  -0.06265  -0.05640

 Mulliken charges:
               1
     1  P    0.436190
     2  P    0.418875
     3  C   -0.382013
     4  C   -0.018250
     5  H    0.176716
     6  C   -0.119180
     7  H    0.131192
     8  C   -0.084850
     9  H    0.136684
    10  C   -0.094577
    11  H    0.135537
    12  C   -0.048737
    13  H    0.188041
    14  C   -0.138756
    15  C   -0.075414
    16  H    0.160824
    17  C   -0.099928
    18  H    0.133243
    19  C   -0.098876
    20  H    0.136600
    21  C   -0.104711
    22  H    0.129427
    23  C   -0.088300
    24  H    0.142312
    25  C   -0.541847
    26  H    0.220528
    27  C   -0.176786
    28  H    0.156504
    29  H    0.142135
    30  C   -0.151655
    31  C   -0.070341
    32  H    0.179640
    33  C   -0.140965
    34  H    0.129577
    35  C   -0.084405
    36  H    0.137675
    37  C   -0.104066
    38  H    0.134482
    39  C   -0.092044
    40  H    0.165155
    41  C   -0.235177
    42  C   -0.096173
    43  H    0.160016
    44  C   -0.086203
    45  H    0.135708
    46  C   -0.092341
    47  H    0.139382
    48  C   -0.104935
    49  H    0.130581
    50  C   -0.078870
    51  H    0.177664
    52  Rh  -0.580312
    53  C   -0.048778
    54  C   -0.090118
    55  C   -0.049375
    56  C   -0.096823
    57  C   -0.353876
    58  H    0.194780
    59  H    0.208708
    60  C   -0.227335
    61  C   -0.344822
    62  H    0.195267
    63  C   -0.216688
    64  H    0.195636
    65  H    0.167067
    66  H    0.165810
    67  H    0.170938
    68  H    0.129596
    69  H    0.166050
    70  H    0.166404
    71  H    0.131364
    72  H    0.172050
    73  C   -0.122435
    74  H    0.110091
    75  H    0.109015
    76  C   -0.216170
    77  H    0.084463
    78  H    0.138337
    79  N   -0.168241
    80  C   -0.278231
    81  H    0.099482
    82  H    0.131847
    83  H    0.125210
    84  C   -0.274853
    85  H    0.134343
    86  H    0.099779
    87  H    0.120952
    88  N   -0.285021
    89  H    0.210601
 Sum of Mulliken charges =   1.00000

 Dipole moment (field-independent basis, Debye):
    X=              1.6316    Y=              0.2766    Z=              0.7234  Tot=              1.8061
 Quadrupole moment (field-independent basis, Debye-Ang):
   XX=           -229.2517   YY=           -232.9714   ZZ=           -234.7988
   XY=              0.8794   XZ=              0.0659   YZ=             -3.4347

 Summary of Natural Population Analysis:

                                       Natural Population
                Natural  -----------------------------------------------
    Atom  No    Charge         Core      Valence    Rydberg      Total
 -----------------------------------------------------------------------
      P    1    1.13447      9.99636     3.81761    0.05156    13.86553
      P    2    1.12464      9.99640     3.82740    0.05156    13.87536
      C    3   -0.36025      1.99898     4.33701    0.02426     6.36025
      C    4   -0.18572      1.99910     4.17105    0.01557     6.18572
      H    5    0.22326      0.00000     0.77462    0.00212     0.77674
      C    6   -0.20296      1.99919     4.18912    0.01465     6.20296
      H    7    0.22127      0.00000     0.77748    0.00125     0.77873
      C    8   -0.17369      1.99921     4.15993    0.01455     6.17369
      H    9    0.22254      0.00000     0.77629    0.00116     0.77746
      C   10   -0.19888      1.99919     4.18476    0.01492     6.19888
      H   11    0.22222      0.00000     0.77652    0.00127     0.77778
      C   12   -0.19246      1.99910     4.17656    0.01681     6.19246
      H   13    0.23870      0.00000     0.75833    0.00297     0.76130
      C   14   -0.33426      1.99898     4.31122    0.02406     6.33426
      C   15   -0.19795      1.99909     4.18386    0.01499     6.19795
      H   16    0.22197      0.00000     0.77631    0.00172     0.77803
      C   17   -0.18977      1.99920     4.17587    0.01470     6.18977
      H   18    0.22181      0.00000     0.77696    0.00122     0.77819
      C   19   -0.18511      1.99920     4.17116    0.01475     6.18511
      H   20    0.22197      0.00000     0.77685    0.00118     0.77803
      C   21   -0.19056      1.99920     4.17668    0.01469     6.19056
      H   22    0.22131      0.00000     0.77745    0.00124     0.77869
      C   23   -0.19553      1.99909     4.18138    0.01507     6.19553
      H   24    0.20699      0.00000     0.79100    0.00201     0.79301
      C   25   -0.74699      1.99937     4.72319    0.02443     6.74699
      H   26    0.25953      0.00000     0.73813    0.00233     0.74047
      C   27   -0.22902      1.99929     4.21281    0.01692     6.22902
      H   28    0.20725      0.00000     0.79003    0.00272     0.79275
      H   29    0.17878      0.00000     0.81687    0.00435     0.82122
      C   30   -0.34235      1.99898     4.31996    0.02340     6.34235
      C   31   -0.19745      1.99909     4.18325    0.01510     6.19745
      H   32    0.21496      0.00000     0.78287    0.00218     0.78504
      C   33   -0.19137      1.99920     4.17761    0.01456     6.19137
      H   34    0.22061      0.00000     0.77814    0.00125     0.77939
      C   35   -0.18259      1.99920     4.16872    0.01466     6.18259
      H   36    0.22250      0.00000     0.77632    0.00117     0.77750
      C   37   -0.19052      1.99920     4.17662    0.01470     6.19052
      H   38    0.22262      0.00000     0.77616    0.00122     0.77738
      C   39   -0.20073      1.99910     4.18649    0.01515     6.20073
      H   40    0.22197      0.00000     0.77627    0.00175     0.77803
      C   41   -0.34689      1.99899     4.32445    0.02346     6.34689
      C   42   -0.19391      1.99910     4.17864    0.01618     6.19391
      H   43    0.22007      0.00000     0.77783    0.00209     0.77993
      C   44   -0.19184      1.99920     4.17807    0.01458     6.19184
      H   45    0.22304      0.00000     0.77573    0.00123     0.77696
      C   46   -0.17521      1.99921     4.16147    0.01453     6.17521
      H   47    0.22327      0.00000     0.77556    0.00117     0.77673
      C   48   -0.19526      1.99920     4.18149    0.01458     6.19526
      H   49    0.22137      0.00000     0.77741    0.00123     0.77863
      C   50   -0.19107      1.99910     4.17649    0.01548     6.19107
      H   51    0.22021      0.00000     0.77779    0.00200     0.77979
     Rh   52   -0.40090     35.98593     9.38607    0.02890    45.40090
      C   53   -0.18290      1.99907     4.16435    0.01949     6.18290
      C   54   -0.15362      1.99908     4.13495    0.01958     6.15362
      C   55   -0.18048      1.99907     4.16178    0.01964     6.18048
      C   56   -0.15613      1.99908     4.13733    0.01972     6.15613
      C   57   -0.42358      1.99936     4.41237    0.01184     6.42358
      H   58    0.22543      0.00000     0.77259    0.00198     0.77457
      H   59    0.23296      0.00000     0.76505    0.00199     0.76704
      C   60   -0.41803      1.99935     4.40607    0.01261     6.41803
      C   61   -0.42397      1.99936     4.41274    0.01187     6.42397
      H   62    0.22481      0.00000     0.77307    0.00213     0.77519
      C   63   -0.41849      1.99935     4.40653    0.01261     6.41849
      H   64    0.22995      0.00000     0.76796    0.00209     0.77005
      H   65    0.22728      0.00000     0.77123    0.00149     0.77272
      H   66    0.21494      0.00000     0.78308    0.00198     0.78506
      H   67    0.23380      0.00000     0.76429    0.00190     0.76620
      H   68    0.21608      0.00000     0.78235    0.00157     0.78392
      H   69    0.21494      0.00000     0.78307    0.00200     0.78506
      H   70    0.22701      0.00000     0.77148    0.00151     0.77299
      H   71    0.21586      0.00000     0.78257    0.00157     0.78414
      H   72    0.23407      0.00000     0.76403    0.00190     0.76593
      C   73   -0.21289      1.99937     4.20040    0.01312     6.21289
      H   74    0.16061      0.00000     0.83635    0.00304     0.83939
      H   75    0.18461      0.00000     0.81273    0.00266     0.81539
      C   76   -0.21189      1.99935     4.19791    0.01463     6.21189
      H   77    0.14714      0.00000     0.84677    0.00609     0.85286
      H   78    0.20017      0.00000     0.79738    0.00245     0.79983
      N   79   -0.41273      1.99957     5.39272    0.02044     7.41273
      C   80   -0.40161      1.99940     4.39177    0.01045     6.40161
      H   81    0.16123      0.00000     0.83456    0.00421     0.83877
      H   82    0.20043      0.00000     0.79806    0.00150     0.79957
      H   83    0.19469      0.00000     0.80390    0.00141     0.80531
      C   84   -0.40880      1.99939     4.39870    0.01072     6.40880
      H   85    0.20320      0.00000     0.79531    0.00149     0.79680
      H   86    0.16092      0.00000     0.83461    0.00447     0.83908
      H   87    0.19152      0.00000     0.80692    0.00156     0.80848
      N   88   -0.61097      1.99956     5.59313    0.01828     7.61097
      H   89    0.36038      0.00000     0.63655    0.00307     0.63962
 =======================================================================
   * Total *    1.00000    135.94678   225.17451    0.87872   362.00000

 Normal termination of Gaussian 16 at Wed Jan 22 13:55:11 2025.
