 Gaussian 16, Revision B.01,
 Gaussian 16:  ES64L-G16RevB.01 20-Dec-2017

 ------------------------------------------
 # nmr=giao b3lyp/genecp pop=nbo scfcyc=200
 ------------------------------------------

 ---------
 MS-31_SPE
 ---------
 Symbolic Z-matrix:
 Charge =  1 Multiplicity = 1

                         Standard orientation:
 ---------------------------------------------------------------------
 Center     Atomic      Atomic             Coordinates (Angstroms)
 Number     Number       Type             X           Y           Z
 ---------------------------------------------------------------------
      1         15           0       -0.685101   -1.047870    0.111999
      2         15           0        0.838191    1.304799    0.063959
      3          6           0       -0.998360    0.820610    0.114619
      4          6           0       -2.008009    1.521571    1.042019
      5          6           0       -1.913592   -1.884789   -0.977151
      6          6           0       -1.948123   -3.285639   -0.957391
      7          6           0       -2.796383   -3.980238   -1.810041
      8          6           0       -3.615603   -3.287768   -2.697591
      9          6           0       -3.583982   -1.898768   -2.725081
     10          6           0       -2.734581   -1.198218   -1.873271
     11          6           0       -1.032352   -1.703950    1.797849
     12          6           0        0.030568   -1.934741    2.676019
     13          6           0       -0.209182   -2.420290    3.957729
     14          6           0       -1.510762   -2.684659    4.369809
     15          6           0       -2.574282   -2.464459    3.498079
     16          6           0       -2.339532   -1.977279    2.217859
     17          6           0        0.884702    2.705429   -1.133841
     18          6           0        1.116951    2.424079   -2.483711
     19          6           0        1.066362    3.440059   -3.432601
     20          6           0        0.784503    4.744649   -3.041711
     21          6           0        0.548633    5.031909   -1.700131
     22          6           0        0.596333    4.019749   -0.748211
     23          6           0        1.405951    2.005378    1.668639
     24          6           0        0.837961    1.633839    2.890419
     25          6           0        1.368101    2.107979    4.085859
     26          6           0        2.477112    2.946488    4.078199
     27          6           0        3.058762    3.308867    2.867259
     28          6           0        2.530682    2.841148    1.669919
     29          1           0       -1.264970    1.029470   -0.924721
     30          1           0       -2.072690    0.998961    1.996409
     31          1           0       -1.624909    2.521091    1.267059
     32          1           0       -1.327583   -3.839520   -0.262951
     33          1           0       -2.819224   -5.062328   -1.779171
     34          1           0       -4.278683   -3.829407   -3.360081
     35          1           0       -4.226111   -1.352997   -3.404681
     36          1           0       -2.742081   -0.117558   -1.908251
     37          1           0        1.044978   -1.737741    2.350849
     38          1           0        0.621018   -2.600231    4.629169
     39          1           0       -1.697283   -3.070069    5.364309
     40          1           0       -3.587662   -2.679398    3.813389
     41          1           0       -3.171312   -1.829668    1.541249
     42          1           0        1.332951    1.408399   -2.791881
     43          1           0        1.251712    3.212769   -4.474901
     44          1           0        0.750254    5.536589   -3.779181
     45          1           0        0.328674    6.046549   -1.392551
     46          1           0        0.420063    4.260509    0.292099
     47          1           0       -0.014650    0.971100    2.925339
     48          1           0        0.910331    1.820459    5.024029
     49          1           0        2.886502    3.315587    5.009929
     50          1           0        3.923892    3.959797    2.852129
     51          1           0        2.991732    3.141537    0.737359
     52         45           0        1.581219   -0.849162   -0.502671
     53          6           0        3.571599   -0.406743   -1.553531
     54          6           0        3.799369   -0.569803   -0.204061
     55          6           0        2.250497   -3.039662   -0.477661
     56          6           0        1.787768   -2.723522   -1.737091
     57          6           0        3.836508   -1.446433   -2.626691
     58          1           0        3.454900    0.611157   -1.907901
     59          1           0        3.867260    0.329307    0.400149
     60          6           0        4.287128   -1.818594    0.488159
     61          6           0        3.708657   -3.137153   -0.069861
     62          1           0        1.546087   -3.510132    0.199879
     63          6           0        2.619048   -2.343862   -2.937781
     64          1           0        0.761937   -2.989121   -1.970711
     65          1           0        4.126889   -0.930984   -3.543691
     66          1           0        4.694898   -2.054854   -2.342851
     67          1           0        5.383348   -1.851614    0.453039
     68          1           0        4.028668   -1.732743    1.545899
     69          1           0        4.302727   -3.485224   -0.914481
     70          1           0        3.802797   -3.906353    0.698439
     71          1           0        1.963488   -1.827032   -3.642091
     72          1           0        2.951797   -3.252773   -3.454691
     73          6           0       -3.394329    1.665892    0.451089
     74          6           0       -4.503330    1.051773    1.025969
     75          6           0       -3.617279    2.448512   -0.683771
     76          6           0       -5.756910    1.224924    0.443959
     77          1           0       -4.403930    0.451713    1.922179
     78          6           0       -4.906789    2.562093   -1.188831
     79          1           0       -2.804358    2.979372   -1.167001
     80          1           0       -6.631270    0.751394    0.878379
     81          1           0       -5.099468    3.170303   -2.066521
     82          7           0       -5.967829    1.958824   -0.647551
 ---------------------------------------------------------------------

 SCF Done:  E(RB3LYP) =  -2358.09151659     A.U. after   16 cycles

      1  P    Isotropic =   283.7486   Anisotropy =    55.8274

      2  P    Isotropic =   286.5041   Anisotropy =    96.5386

      3  C    Isotropic =   108.7321   Anisotropy =    66.7003

      4  C    Isotropic =   146.3616   Anisotropy =    31.5334

      5  C    Isotropic =    46.3909   Anisotropy =   170.1015

      6  C    Isotropic =    48.2229   Anisotropy =   186.7817

      7  C    Isotropic =    48.5976   Anisotropy =   190.7638

      8  C    Isotropic =    46.5434   Anisotropy =   196.1658

      9  C    Isotropic =    49.3495   Anisotropy =   191.1896

     10  C    Isotropic =    49.9865   Anisotropy =   189.3115

     11  C    Isotropic =    47.5542   Anisotropy =   168.3621

     12  C    Isotropic =    39.4909   Anisotropy =   182.6845

     13  C    Isotropic =    49.4503   Anisotropy =   187.5239

     14  C    Isotropic =    44.2749   Anisotropy =   198.7721

     15  C    Isotropic =    48.7239   Anisotropy =   188.8440

     16  C    Isotropic =    42.6403   Anisotropy =   192.7407

     17  C    Isotropic =    42.7766   Anisotropy =   177.5700

     18  C    Isotropic =    43.9876   Anisotropy =   179.2910

     19  C    Isotropic =    48.0612   Anisotropy =   189.8069

     20  C    Isotropic =    44.5066   Anisotropy =   199.0048

     21  C    Isotropic =    48.3147   Anisotropy =   190.3727

     22  C    Isotropic =    46.6191   Anisotropy =   188.8540

     23  C    Isotropic =    47.8381   Anisotropy =   163.3470

     24  C    Isotropic =    47.6112   Anisotropy =   185.4682

     25  C    Isotropic =    49.5748   Anisotropy =   189.2456

     26  C    Isotropic =    46.3631   Anisotropy =   196.2008

     27  C    Isotropic =    48.1038   Anisotropy =   191.4635

     28  C    Isotropic =    46.7865   Anisotropy =   189.5330

     29  H    Isotropic =    27.2634   Anisotropy =     5.6587

     30  H    Isotropic =    29.1066   Anisotropy =     3.7302

     31  H    Isotropic =    28.8469   Anisotropy =     4.1835

     32  H    Isotropic =    25.0469   Anisotropy =    11.2556

     33  H    Isotropic =    24.3869   Anisotropy =     6.3651

     34  H    Isotropic =    24.2958   Anisotropy =     3.5460

     35  H    Isotropic =    24.6772   Anisotropy =     7.3678

     36  H    Isotropic =    25.2323   Anisotropy =     7.8174

     37  H    Isotropic =    23.0101   Anisotropy =     9.2508

     38  H    Isotropic =    23.9689   Anisotropy =     6.9337

     39  H    Isotropic =    23.7955   Anisotropy =     3.7620

     40  H    Isotropic =    24.0318   Anisotropy =     6.4146

     41  H    Isotropic =    24.4738   Anisotropy =    10.7333

     42  H    Isotropic =    23.4453   Anisotropy =    10.3363

     43  H    Isotropic =    23.8963   Anisotropy =     6.9673

     44  H    Isotropic =    23.8165   Anisotropy =     3.4886

     45  H    Isotropic =    24.0768   Anisotropy =     6.4487

     46  H    Isotropic =    24.2946   Anisotropy =    12.0068

     47  H    Isotropic =    24.7500   Anisotropy =     7.5960

     48  H    Isotropic =    24.3572   Anisotropy =     7.7294

     49  H    Isotropic =    24.0615   Anisotropy =     3.8633

     50  H    Isotropic =    24.1618   Anisotropy =     6.1352

     51  H    Isotropic =    24.6508   Anisotropy =    11.4664

     52  Rh   Isotropic =  -301.1013   Anisotropy =   336.3587

     53  C    Isotropic =    78.4281   Anisotropy =   121.6913

     54  C    Isotropic =    73.1993   Anisotropy =   122.2443

     55  C    Isotropic =    79.6141   Anisotropy =   121.2354

     56  C    Isotropic =    71.5530   Anisotropy =   125.1221

     57  C    Isotropic =   153.9515   Anisotropy =    25.0491

     58  H    Isotropic =    26.8121   Anisotropy =     6.1070

     59  H    Isotropic =    26.6588   Anisotropy =     3.9908

     60  C    Isotropic =   148.0216   Anisotropy =    28.8310

     61  C    Isotropic =   153.9382   Anisotropy =    25.0363

     62  H    Isotropic =    26.9231   Anisotropy =     5.8828

     63  C    Isotropic =   148.2931   Anisotropy =    29.3052

     64  H    Isotropic =    26.8328   Anisotropy =     4.8091

     65  H    Isotropic =    29.7708   Anisotropy =    11.6587

     66  H    Isotropic =    29.7114   Anisotropy =     9.8687

     67  H    Isotropic =    29.2041   Anisotropy =    12.6721

     68  H    Isotropic =    29.3020   Anisotropy =     7.0645

     69  H    Isotropic =    29.7275   Anisotropy =    10.0130

     70  H    Isotropic =    29.8268   Anisotropy =    11.4074

     71  H    Isotropic =    29.2181   Anisotropy =     7.0696

     72  H    Isotropic =    29.2255   Anisotropy =    12.6208

     73  C    Isotropic =    30.3237   Anisotropy =   213.7520

     74  C    Isotropic =    56.4189   Anisotropy =   154.4669

     75  C    Isotropic =    58.3289   Anisotropy =   163.9480

     76  C    Isotropic =    26.6026   Anisotropy =   176.6449

     77  H    Isotropic =    25.0380   Anisotropy =     9.4184

     78  C    Isotropic =    26.3880   Anisotropy =   176.5689

     79  H    Isotropic =    25.4151   Anisotropy =     9.8571

     80  H    Isotropic =    23.2312   Anisotropy =     7.8242

     81  H    Isotropic =    23.1035   Anisotropy =     9.1636

     82  N    Isotropic =  -102.4786   Anisotropy =   600.2563

 The electronic state is 1-A.
 Alpha  occ. eigenvalues --  -77.24176 -77.24057 -14.39181 -10.31798 -10.30118
 Alpha  occ. eigenvalues --  -10.29973 -10.29956 -10.29756 -10.29320 -10.29272
 Alpha  occ. eigenvalues --  -10.29191 -10.29136 -10.29022 -10.29008 -10.28997
 Alpha  occ. eigenvalues --  -10.28963 -10.28769 -10.28728 -10.28711 -10.28676
 Alpha  occ. eigenvalues --  -10.28611 -10.28562 -10.28329 -10.28273 -10.28160
 Alpha  occ. eigenvalues --  -10.28049 -10.28023 -10.28006 -10.27952 -10.27913
 Alpha  occ. eigenvalues --  -10.27845 -10.27818 -10.27729 -10.27713 -10.27638
 Alpha  occ. eigenvalues --  -10.27547 -10.27467 -10.27449 -10.27448 -10.27384
 Alpha  occ. eigenvalues --  -10.26856 -10.26810  -6.70130  -6.70011  -4.86409
 Alpha  occ. eigenvalues --   -4.86361  -4.86292  -4.86236  -4.86029  -4.85916
 Alpha  occ. eigenvalues --   -3.31717  -2.08616  -2.07961  -2.05176  -1.02910
 Alpha  occ. eigenvalues --   -0.97287  -0.97034  -0.96457  -0.96275  -0.94591
 Alpha  occ. eigenvalues --   -0.93291  -0.89475  -0.89334  -0.88166  -0.87649
 Alpha  occ. eigenvalues --   -0.85875  -0.85761  -0.85664  -0.85507  -0.85239
 Alpha  occ. eigenvalues --   -0.85133  -0.85109  -0.84859  -0.80540  -0.79595
 Alpha  occ. eigenvalues --   -0.77985  -0.76031  -0.73098  -0.72012  -0.71685
 Alpha  occ. eigenvalues --   -0.71574  -0.71368  -0.70948  -0.70721  -0.70600
 Alpha  occ. eigenvalues --   -0.70526  -0.69316  -0.67400  -0.66349  -0.65994
 Alpha  occ. eigenvalues --   -0.62985  -0.62643  -0.62439  -0.61472  -0.60920
 Alpha  occ. eigenvalues --   -0.60425  -0.60130  -0.58576  -0.57249  -0.57020
 Alpha  occ. eigenvalues --   -0.56548  -0.56475  -0.56438  -0.56167  -0.56012
 Alpha  occ. eigenvalues --   -0.55810  -0.55720  -0.55535  -0.55155  -0.54459
 Alpha  occ. eigenvalues --   -0.53801  -0.53653  -0.53157  -0.53124  -0.52948
 Alpha  occ. eigenvalues --   -0.52837  -0.52750  -0.52650  -0.51904  -0.51671
 Alpha  occ. eigenvalues --   -0.51317  -0.50369  -0.49213  -0.48955  -0.48523
 Alpha  occ. eigenvalues --   -0.48253  -0.48145  -0.48022  -0.47791  -0.47463
 Alpha  occ. eigenvalues --   -0.47322  -0.46315  -0.46153  -0.46060  -0.45511
 Alpha  occ. eigenvalues --   -0.45442  -0.45380  -0.45019  -0.44747  -0.44087
 Alpha  occ. eigenvalues --   -0.43704  -0.43572  -0.43309  -0.42937  -0.42612
 Alpha  occ. eigenvalues --   -0.41614  -0.38381  -0.37842  -0.37431  -0.37338
 Alpha  occ. eigenvalues --   -0.36790  -0.36642  -0.36415  -0.36090  -0.35840
 Alpha  occ. eigenvalues --   -0.35558  -0.35370  -0.35205  -0.34695  -0.34337
 Alpha  occ. eigenvalues --   -0.33862  -0.33795  -0.30881
 Alpha virt. eigenvalues --   -0.16689  -0.15094  -0.14221  -0.13714  -0.13032
 Alpha virt. eigenvalues --   -0.12723  -0.12071  -0.11774  -0.11357  -0.11032
 Alpha virt. eigenvalues --   -0.10586  -0.10509  -0.09445  -0.07717  -0.06636

 Mulliken charges:
               1
     1  P    0.429655
     2  P    0.421747
     3  C   -0.575454
     4  C   -0.260114
     5  C   -0.164163
     6  C   -0.101650
     7  C   -0.083215
     8  C   -0.094005
     9  C   -0.121410
    10  C   -0.048850
    11  C   -0.372195
    12  C   -0.023648
    13  C   -0.098089
    14  C   -0.095096
    15  C   -0.083180
    16  C   -0.055410
    17  C   -0.246557
    18  C   -0.080439
    19  C   -0.100184
    20  C   -0.091233
    21  C   -0.093031
    22  C   -0.076566
    23  C   -0.093017
    24  C   -0.077289
    25  C   -0.124856
    26  C   -0.099261
    27  C   -0.083596
    28  C   -0.143572
    29  H    0.234372
    30  H    0.186102
    31  H    0.188292
    32  H    0.154671
    33  H    0.134258
    34  H    0.139492
    35  H    0.135326
    36  H    0.151640
    37  H    0.189131
    38  H    0.133504
    39  H    0.140130
    40  H    0.138589
    41  H    0.178421
    42  H    0.181781
    43  H    0.133023
    44  H    0.141088
    45  H    0.138159
    46  H    0.159944
    47  H    0.162691
    48  H    0.132635
    49  H    0.139192
    50  H    0.136913
    51  H    0.166048
    52  Rh  -0.674643
    53  C   -0.049317
    54  C   -0.090792
    55  C   -0.039719
    56  C   -0.092472
    57  C   -0.346254
    58  H    0.200156
    59  H    0.202943
    60  C   -0.230497
    61  C   -0.352945
    62  H    0.188147
    63  C   -0.224539
    64  H    0.212964
    65  H    0.168568
    66  H    0.167784
    67  H    0.173266
    68  H    0.134839
    69  H    0.168544
    70  H    0.169635
    71  H    0.132385
    72  H    0.173216
    73  C   -0.000365
    74  C   -0.064693
    75  C   -0.118512
    76  C   -0.140839
    77  H    0.143007
    78  C   -0.128874
    79  H    0.161508
    80  H    0.118934
    81  H    0.118297
    82  N   -0.040453
 Sum of Mulliken charges =   1.00000

 Dipole moment (field-independent basis, Debye):
    X=              4.1054    Y=             -1.1146    Z=              0.8046  Tot=              4.3294
 Quadrupole moment (field-independent basis, Debye-Ang):
   XX=           -251.5149   YY=           -228.6772   ZZ=           -228.2573
   XY=             13.3819   XZ=             -3.8557   YZ=             -3.7962

 Summary of Natural Population Analysis:

                                       Natural Population
                Natural  -----------------------------------------------
    Atom  No    Charge         Core      Valence    Rydberg      Total
 -----------------------------------------------------------------------
      P    1    1.12954      9.99636     3.82200    0.05210    13.87046
      P    2    1.13527      9.99634     3.81585    0.05254    13.86473
      C    3   -0.73256      1.99937     4.70988    0.02331     6.73256
      C    4   -0.44245      1.99930     4.42614    0.01702     6.44245
      C    5   -0.34335      1.99899     4.32113    0.02323     6.34335
      C    6   -0.20134      1.99909     4.18707    0.01518     6.20134
      C    7   -0.19023      1.99920     4.17642    0.01461     6.19023
      C    8   -0.18027      1.99920     4.16650    0.01457     6.18027
      C    9   -0.18641      1.99920     4.17264    0.01457     6.18641
      C   10   -0.19427      1.99909     4.17988    0.01531     6.19427
      C   11   -0.35611      1.99898     4.33255    0.02458     6.35611
      C   12   -0.18687      1.99909     4.17217    0.01561     6.18687
      C   13   -0.19956      1.99919     4.18577    0.01460     6.19956
      C   14   -0.17359      1.99921     4.15985    0.01453     6.17359
      C   15   -0.19488      1.99919     4.18115    0.01453     6.19488
      C   16   -0.19180      1.99909     4.17668    0.01603     6.19180
      C   17   -0.34967      1.99899     4.32703    0.02365     6.34967
      C   18   -0.19277      1.99910     4.17829    0.01539     6.19277
      C   19   -0.19419      1.99920     4.18039    0.01460     6.19419
      C   20   -0.17544      1.99921     4.16169    0.01454     6.17544
      C   21   -0.19187      1.99920     4.17809    0.01459     6.19187
      C   22   -0.19504      1.99909     4.18007    0.01588     6.19504
      C   23   -0.34715      1.99899     4.32453    0.02363     6.34715
      C   24   -0.19661      1.99909     4.18249    0.01503     6.19661
      C   25   -0.19100      1.99920     4.17724    0.01456     6.19100
      C   26   -0.18057      1.99920     4.16674    0.01462     6.18057
      C   27   -0.19029      1.99920     4.17644    0.01466     6.19029
      C   28   -0.20046      1.99910     4.18619    0.01517     6.20046
      H   29    0.26155      0.00000     0.73573    0.00271     0.73845
      H   30    0.22383      0.00000     0.77383    0.00234     0.77617
      H   31    0.23277      0.00000     0.76446    0.00277     0.76723
      H   32    0.21652      0.00000     0.78167    0.00181     0.78348
      H   33    0.22296      0.00000     0.77581    0.00123     0.77704
      H   34    0.22378      0.00000     0.77505    0.00117     0.77622
      H   35    0.22429      0.00000     0.77448    0.00123     0.77571
      H   36    0.21411      0.00000     0.78370    0.00219     0.78589
      H   37    0.22523      0.00000     0.77268    0.00209     0.77477
      H   38    0.22216      0.00000     0.77660    0.00124     0.77784
      H   39    0.22395      0.00000     0.77488    0.00117     0.77605
      H   40    0.22401      0.00000     0.77476    0.00123     0.77599
      H   41    0.22462      0.00000     0.77325    0.00213     0.77538
      H   42    0.22145      0.00000     0.77664    0.00191     0.77855
      H   43    0.22248      0.00000     0.77630    0.00122     0.77752
      H   44    0.22429      0.00000     0.77454    0.00117     0.77571
      H   45    0.22454      0.00000     0.77423    0.00123     0.77546
      H   46    0.22193      0.00000     0.77614    0.00193     0.77807
      H   47    0.21477      0.00000     0.78307    0.00216     0.78523
      H   48    0.22179      0.00000     0.77697    0.00124     0.77821
      H   49    0.22362      0.00000     0.77521    0.00116     0.77638
      H   50    0.22366      0.00000     0.77512    0.00122     0.77634
      H   51    0.22050      0.00000     0.77773    0.00177     0.77950
     Rh   52   -0.40359     35.98574     9.38941    0.02845    45.40359
      C   53   -0.17748      1.99906     4.15886    0.01956     6.17748
      C   54   -0.15586      1.99908     4.13701    0.01978     6.15586
      C   55   -0.17782      1.99907     4.15918    0.01958     6.17782
      C   56   -0.15615      1.99907     4.13733    0.01975     6.15615
      C   57   -0.42390      1.99936     4.41272    0.01182     6.42390
      H   58    0.22604      0.00000     0.77182    0.00214     0.77396
      H   59    0.22910      0.00000     0.76877    0.00213     0.77090
      C   60   -0.41855      1.99935     4.40658    0.01261     6.41855
      C   61   -0.42385      1.99936     4.41265    0.01184     6.42385
      H   62    0.22520      0.00000     0.77287    0.00193     0.77480
      C   63   -0.41871      1.99935     4.40675    0.01261     6.41871
      H   64    0.23268      0.00000     0.76511    0.00222     0.76732
      H   65    0.22813      0.00000     0.77036    0.00151     0.77187
      H   66    0.21518      0.00000     0.78283    0.00199     0.78482
      H   67    0.23479      0.00000     0.76332    0.00189     0.76521
      H   68    0.21573      0.00000     0.78273    0.00155     0.78427
      H   69    0.21534      0.00000     0.78269    0.00197     0.78466
      H   70    0.22848      0.00000     0.77005    0.00147     0.77152
      H   71    0.21703      0.00000     0.78145    0.00153     0.78297
      H   72    0.23463      0.00000     0.76348    0.00189     0.76537
      C   73    0.00953      1.99908     3.97288    0.01851     5.99047
      C   74   -0.24886      1.99905     4.23607    0.01375     6.24886
      C   75   -0.26531      1.99905     4.25273    0.01353     6.26531
      C   76    0.04385      1.99926     3.93373    0.02316     5.95615
      H   77    0.21257      0.00000     0.78557    0.00186     0.78743
      C   78    0.03880      1.99925     3.93866    0.02330     5.96120
      H   79    0.21385      0.00000     0.78417    0.00197     0.78615
      H   80    0.19820      0.00000     0.80025    0.00155     0.80180
      H   81    0.19801      0.00000     0.80042    0.00156     0.80199
      N   82   -0.39193      1.99949     5.37410    0.01833     7.39193
 =======================================================================
   * Total *    1.00000    135.94507   217.18225    0.87267   354.00000

 Normal termination of Gaussian 16 at Wed Jan 22 04:31:16 2025.
