 Gaussian 16, Revision B.01,
 Gaussian 16:  ES64L-G16RevB.01 20-Dec-2017

 ------------------------------------------
 # nmr=giao b3lyp/genecp pop=nbo scfcyc=200
 ------------------------------------------

 ---------
 MS-34_SPE
 ---------
 Symbolic Z-matrix:
 Charge =  1 Multiplicity = 1

                         Standard orientation:
 ---------------------------------------------------------------------
 Center     Atomic      Atomic             Coordinates (Angstroms)
 Number     Number       Type             X           Y           Z
 ---------------------------------------------------------------------
      1         15           0       -0.089812   -1.377931   -0.127850
      2         15           0        0.188822    1.426339   -0.161210
      3          6           0       -1.020300    0.110440   -0.818830
      4          6           0       -0.288423   -2.742801   -1.348510
      5          6           0        0.283145   -3.982672   -1.034620
      6          6           0        0.216653   -5.036381   -1.936690
      7          6           0       -0.416356   -4.865811   -3.165060
      8          6           0       -0.986475   -3.639120   -3.483060
      9          6           0       -0.922363   -2.579250   -2.582220
     10          6           0       -0.863012   -2.005880    1.415430
     11          6           0       -0.289342   -1.667151    2.643880
     12          6           0       -0.840833   -2.141310    3.829400
     13          6           0       -1.961074   -2.964068    3.793450
     14          6           0       -2.532294   -3.310388    2.571370
     15          6           0       -1.989564   -2.833818    1.385820
     16          6           0        0.245974    2.700418   -1.488860
     17          6           0        1.139834    2.519427   -2.548880
     18          6           0        1.162495    3.419337   -3.608600
     19          6           0        0.297437    4.508608   -3.614610
     20          6           0       -0.594693    4.693460   -2.562500
     21          6           0       -0.625244    3.793870   -1.503360
     22          6           0       -0.440177    2.283799    1.336850
     23          6           0       -1.451867    1.764711    2.148340
     24          6           0       -1.796526    2.418791    3.328540
     25          6           0       -1.137875    3.580700    3.711940
     26          6           0       -0.124794    4.098009    2.908740
     27          6           0        0.226645    3.453019    1.730510
     28          1           0       -0.705120    0.116270   -1.865850
     29          1           0        0.764955   -4.136332   -0.076220
     30          1           0        0.657672   -5.991262   -1.679710
     31          1           0       -0.468018   -5.687571   -3.867920
     32          1           0       -1.487054   -3.501979   -4.433300
     33          1           0       -1.383682   -1.639249   -2.854960
     34          1           0        0.588739   -1.033192    2.668850
     35          1           0       -0.390712   -1.874731    4.777380
     36          1           0       -2.386064   -3.341358    4.715230
     37          1           0       -3.402785   -3.953646    2.542470
     38          1           0       -2.440774   -3.109598    0.442530
     39          1           0        1.815333    1.672256   -2.546240
     40          1           0        1.858445    3.272896   -4.425040
     41          1           0        0.318598    5.212908   -4.436660
     42          1           0       -1.270152    5.539721   -2.566230
     43          1           0       -1.322524    3.948961   -0.690630
     44          1           0       -1.991848    0.873072    1.862210
     45          1           0       -2.588517    2.014392    3.946400
     46          1           0       -1.412534    4.084671    4.630050
     47          1           0        0.391147    5.004908    3.198160
     48          1           0        1.010026    3.874367    1.111830
     49         45           0        1.914360   -0.155914    0.142800
     50          6           0        3.781862    1.135574   -0.143650
     51          6           0        3.432062    1.133964    1.190220
     52          6           0        3.324558   -1.773116    0.923850
     53          6           0        3.386098   -1.744456   -0.454170
     54          6           0        4.896711    0.313492   -0.763560
     55          1           0        3.430093    1.970364   -0.739080
     56          1           0        2.850413    1.975675    1.552180
     57          6           0        4.029291    0.281283    2.282470
     58          6           0        4.349979   -1.170547    1.865830
     59          1           0        2.652737   -2.497755    1.371220
     60          6           0        4.432399   -1.058597   -1.298110
     61          1           0        2.781947   -2.466425   -0.993930
     62          1           0        5.324862    0.879471   -1.592570
     63          1           0        5.702921    0.187121   -0.041190
     64          1           0        4.935091    0.764302    2.670070
     65          1           0        3.322661    0.267814    3.115140
     66          1           0        5.340099   -1.226439    1.413900
     67          1           0        4.397118   -1.785057    2.766330
     68          1           0        4.015409   -0.930467   -2.299380
     69          1           0        5.298258   -1.721658   -1.419480
     70          6           0       -2.504839    0.253402   -0.822610
     71          8           0       -2.999049    0.729543   -2.003800
     72          6           0       -4.689009    0.250925   -0.394230
     73          6           0       -4.432968    0.864005   -1.803640
     74          1           0       -4.680017    1.924695   -1.859910
     75          1           0       -4.935079    0.330376   -2.609390
     76          7           0       -3.316880   -0.022017    0.107670
     77          6           0       -5.393108    1.234236    0.541660
     78          1           0       -6.389618    1.474428    0.164010
     79          1           0       -5.500999    0.801256    1.536810
     80          1           0       -4.827367    2.163115    0.631680
     81          6           0       -5.459171   -1.070414   -0.474470
     82          1           0       -5.527262   -1.530224    0.511970
     83          1           0       -6.472531   -0.899702   -0.844760
     84          1           0       -4.963682   -1.772774   -1.147810
 ---------------------------------------------------------------------

 SCF Done:  E(RB3LYP) =  -2396.43365838     A.U. after   16 cycles

      1  P    Isotropic =   290.4834   Anisotropy =    52.5644

      2  P    Isotropic =   286.3832   Anisotropy =    79.1462

      3  C    Isotropic =   118.2049   Anisotropy =    47.3280

      4  C    Isotropic =    44.5845   Anisotropy =   170.9468

      5  C    Isotropic =    47.2840   Anisotropy =   188.5514

      6  C    Isotropic =    48.0797   Anisotropy =   191.7392

      7  C    Isotropic =    46.3627   Anisotropy =   196.3815

      8  C    Isotropic =    48.9113   Anisotropy =   189.9866

      9  C    Isotropic =    50.2063   Anisotropy =   186.5167

     10  C    Isotropic =    48.0785   Anisotropy =   165.2591

     11  C    Isotropic =    39.8965   Anisotropy =   182.1013

     12  C    Isotropic =    50.9607   Anisotropy =   185.4731

     13  C    Isotropic =    44.6951   Anisotropy =   198.1849

     14  C    Isotropic =    49.9736   Anisotropy =   187.6301

     15  C    Isotropic =    40.3302   Anisotropy =   198.2430

     16  C    Isotropic =    43.8745   Anisotropy =   173.9097

     17  C    Isotropic =    44.7910   Anisotropy =   179.7771

     18  C    Isotropic =    48.7848   Anisotropy =   188.4066

     19  C    Isotropic =    44.8126   Anisotropy =   197.9538

     20  C    Isotropic =    48.8403   Anisotropy =   189.2748

     21  C    Isotropic =    45.6944   Anisotropy =   192.3446

     22  C    Isotropic =    47.4164   Anisotropy =   157.4132

     23  C    Isotropic =    44.3786   Anisotropy =   201.1349

     24  C    Isotropic =    49.6581   Anisotropy =   190.7890

     25  C    Isotropic =    46.7028   Anisotropy =   196.6627

     26  C    Isotropic =    49.6003   Anisotropy =   189.7081

     27  C    Isotropic =    47.8745   Anisotropy =   187.7848

     28  H    Isotropic =    26.8556   Anisotropy =     4.2774

     29  H    Isotropic =    24.9054   Anisotropy =    11.3731

     30  H    Isotropic =    24.2286   Anisotropy =     6.5397

     31  H    Isotropic =    24.0711   Anisotropy =     3.3823

     32  H    Isotropic =    24.1180   Anisotropy =     6.7888

     33  H    Isotropic =    24.2459   Anisotropy =    10.7412

     34  H    Isotropic =    23.1902   Anisotropy =     8.6486

     35  H    Isotropic =    24.2407   Anisotropy =     6.7094

     36  H    Isotropic =    23.9732   Anisotropy =     3.4917

     37  H    Isotropic =    24.2982   Anisotropy =     6.1567

     38  H    Isotropic =    24.6500   Anisotropy =    10.8049

     39  H    Isotropic =    23.4938   Anisotropy =    10.1998

     40  H    Isotropic =    24.0105   Anisotropy =     6.9901

     41  H    Isotropic =    23.9674   Anisotropy =     3.6825

     42  H    Isotropic =    24.2764   Anisotropy =     6.5424

     43  H    Isotropic =    24.5571   Anisotropy =    11.9093

     44  H    Isotropic =    23.6269   Anisotropy =     5.9692

     45  H    Isotropic =    24.4889   Anisotropy =     7.4907

     46  H    Isotropic =    24.1127   Anisotropy =     3.8488

     47  H    Isotropic =    24.2359   Anisotropy =     5.9402

     48  H    Isotropic =    24.7670   Anisotropy =    10.9542

     49  Rh   Isotropic =  -303.6539   Anisotropy =   335.1313

     50  C    Isotropic =    78.6776   Anisotropy =   121.3782

     51  C    Isotropic =    74.0298   Anisotropy =   120.4012

     52  C    Isotropic =    80.8442   Anisotropy =   119.9212

     53  C    Isotropic =    72.5671   Anisotropy =   123.5760

     54  C    Isotropic =   153.9917   Anisotropy =    24.9554

     55  H    Isotropic =    26.8120   Anisotropy =     5.8891

     56  H    Isotropic =    26.5675   Anisotropy =     4.4199

     57  C    Isotropic =   147.9284   Anisotropy =    28.8273

     58  C    Isotropic =   153.9577   Anisotropy =    25.0209

     59  H    Isotropic =    26.9256   Anisotropy =     5.7984

     60  C    Isotropic =   147.8957   Anisotropy =    29.7502

     61  H    Isotropic =    26.6632   Anisotropy =     4.9926

     62  H    Isotropic =    29.7715   Anisotropy =    11.5870

     63  H    Isotropic =    29.7207   Anisotropy =     9.7896

     64  H    Isotropic =    29.1896   Anisotropy =    12.6729

     65  H    Isotropic =    29.2808   Anisotropy =     7.1071

     66  H    Isotropic =    29.7501   Anisotropy =     9.9818

     67  H    Isotropic =    29.8436   Anisotropy =    11.3601

     68  H    Isotropic =    29.1259   Anisotropy =     7.1886

     69  H    Isotropic =    29.1814   Anisotropy =    12.6322

     70  C    Isotropic =    20.1992   Anisotropy =    71.7964

     71  O    Isotropic =   120.2412   Anisotropy =   216.9703

     72  C    Isotropic =   108.1168   Anisotropy =    63.2296

     73  C    Isotropic =   103.0073   Anisotropy =    59.5613

     74  H    Isotropic =    28.3469   Anisotropy =     6.3324

     75  H    Isotropic =    28.0758   Anisotropy =     6.8079

     76  N    Isotropic =   -38.5692   Anisotropy =   295.4850

     77  C    Isotropic =   154.4644   Anisotropy =    40.6991

     78  H    Isotropic =    30.8159   Anisotropy =    10.6004

     79  H    Isotropic =    30.5711   Anisotropy =     6.5818

     80  H    Isotropic =    31.1990   Anisotropy =     5.5627

     81  C    Isotropic =   154.0398   Anisotropy =    41.1373

     82  H    Isotropic =    30.6058   Anisotropy =     6.5907

     83  H    Isotropic =    30.8239   Anisotropy =    10.6455

     84  H    Isotropic =    31.0509   Anisotropy =     5.3943

 The electronic state is 1-A.
 Alpha  occ. eigenvalues --  -77.24230 -77.24010 -19.25728 -14.39233 -10.36445
 Alpha  occ. eigenvalues --  -10.31932 -10.31459 -10.30595 -10.29625 -10.29396
 Alpha  occ. eigenvalues --  -10.29387 -10.29013 -10.28972 -10.28930 -10.28710
 Alpha  occ. eigenvalues --  -10.28707 -10.28289 -10.28223 -10.28195 -10.28029
 Alpha  occ. eigenvalues --  -10.27956 -10.27804 -10.27648 -10.27481 -10.27460
 Alpha  occ. eigenvalues --  -10.27441 -10.27393 -10.27383 -10.27369 -10.27362
 Alpha  occ. eigenvalues --  -10.27302 -10.27298 -10.27170 -10.27169 -10.27158
 Alpha  occ. eigenvalues --  -10.27132 -10.27032 -10.26981 -10.26892 -10.26881
 Alpha  occ. eigenvalues --  -10.24560 -10.24480  -6.70140  -6.69942  -4.86456
 Alpha  occ. eigenvalues --   -4.86345  -4.86252  -4.86144  -4.86031  -4.85842
 Alpha  occ. eigenvalues --   -3.31465  -2.08359  -2.07722  -2.04910  -1.18397
 Alpha  occ. eigenvalues --   -1.00589  -0.96669  -0.96449  -0.95751  -0.95691
 Alpha  occ. eigenvalues --   -0.94306  -0.91666  -0.89034  -0.88098  -0.87875
 Alpha  occ. eigenvalues --   -0.87132  -0.85292  -0.85142  -0.84885  -0.84692
 Alpha  occ. eigenvalues --   -0.84597  -0.84534  -0.84283  -0.80218  -0.79084
 Alpha  occ. eigenvalues --   -0.77713  -0.77684  -0.75606  -0.74146  -0.71085
 Alpha  occ. eigenvalues --   -0.71032  -0.70753  -0.70504  -0.70422  -0.69985
 Alpha  occ. eigenvalues --   -0.69937  -0.68837  -0.67250  -0.66862  -0.65721
 Alpha  occ. eigenvalues --   -0.64371  -0.62493  -0.62284  -0.61917  -0.61122
 Alpha  occ. eigenvalues --   -0.60260  -0.59855  -0.58440  -0.58089  -0.56925
 Alpha  occ. eigenvalues --   -0.56364  -0.56153  -0.56070  -0.55810  -0.55721
 Alpha  occ. eigenvalues --   -0.55281  -0.55272  -0.55046  -0.54492  -0.54440
 Alpha  occ. eigenvalues --   -0.53496  -0.53329  -0.52826  -0.52613  -0.52602
 Alpha  occ. eigenvalues --   -0.52424  -0.52371  -0.52129  -0.52060  -0.51218
 Alpha  occ. eigenvalues --   -0.50967  -0.50164  -0.50014  -0.49291  -0.48632
 Alpha  occ. eigenvalues --   -0.48053  -0.47925  -0.47595  -0.47364  -0.47173
 Alpha  occ. eigenvalues --   -0.46932  -0.46242  -0.45884  -0.45825  -0.45706
 Alpha  occ. eigenvalues --   -0.45494  -0.45043  -0.44891  -0.44600  -0.44542
 Alpha  occ. eigenvalues --   -0.43869  -0.43536  -0.43273  -0.43157  -0.43070
 Alpha  occ. eigenvalues --   -0.42753  -0.42493  -0.42118  -0.41336  -0.38086
 Alpha  occ. eigenvalues --   -0.37768  -0.37445  -0.36632  -0.36148  -0.36015
 Alpha  occ. eigenvalues --   -0.35977  -0.35598  -0.35366  -0.35303  -0.34903
 Alpha  occ. eigenvalues --   -0.34427  -0.34252  -0.34003  -0.33587  -0.30612
 Alpha virt. eigenvalues --   -0.16207  -0.14820  -0.13710  -0.13317  -0.12450
 Alpha virt. eigenvalues --   -0.12067  -0.11538  -0.11046  -0.10722  -0.10088
 Alpha virt. eigenvalues --   -0.09105  -0.08970  -0.07382  -0.06474  -0.06077

 Mulliken charges:
               1
     1  P    0.434432
     2  P    0.410893
     3  C   -0.632060
     4  C   -0.147450
     5  C   -0.104136
     6  C   -0.085352
     7  C   -0.093517
     8  C   -0.112861
     9  C   -0.078189
    10  C   -0.305635
    11  C   -0.020410
    12  C   -0.104499
    13  C   -0.094569
    14  C   -0.097934
    15  C    0.029883
    16  C   -0.233853
    17  C   -0.085455
    18  C   -0.102552
    19  C   -0.082148
    20  C   -0.098527
    21  C   -0.049558
    22  C   -0.088382
    23  C   -0.088112
    24  C   -0.134779
    25  C   -0.094801
    26  C   -0.090433
    27  C   -0.149926
    28  H    0.268634
    29  H    0.158496
    30  H    0.134259
    31  H    0.138798
    32  H    0.133481
    33  H    0.137856
    34  H    0.181106
    35  H    0.129067
    36  H    0.134705
    37  H    0.132183
    38  H    0.138177
    39  H    0.182987
    40  H    0.130025
    41  H    0.138814
    42  H    0.133770
    43  H    0.159666
    44  H    0.210585
    45  H    0.130743
    46  H    0.134344
    47  H    0.133508
    48  H    0.164760
    49  Rh  -0.705690
    50  C   -0.049158
    51  C   -0.087127
    52  C   -0.037453
    53  C   -0.091985
    54  C   -0.345307
    55  H    0.204321
    56  H    0.196574
    57  C   -0.231852
    58  C   -0.354272
    59  H    0.188060
    60  C   -0.225838
    61  H    0.209933
    62  H    0.168225
    63  H    0.167338
    64  H    0.172021
    65  H    0.136884
    66  H    0.167919
    67  H    0.169634
    68  H    0.131492
    69  H    0.171920
    70  C    0.162030
    71  O   -0.203982
    72  C    0.059885
    73  C   -0.161367
    74  H    0.148368
    75  H    0.151925
    76  N   -0.112654
    77  C   -0.350911
    78  H    0.139269
    79  H    0.136391
    80  H    0.125281
    81  C   -0.359887
    82  H    0.140711
    83  H    0.140819
    84  H    0.122452
 Sum of Mulliken charges =   1.00000

 Dipole moment (field-independent basis, Debye):
    X=              0.5640    Y=              0.0313    Z=             -0.5068  Tot=              0.7589
 Quadrupole moment (field-independent basis, Debye-Ang):
   XX=           -220.9909   YY=           -226.7164   ZZ=           -236.6385
   XY=             -0.6363   XZ=              0.8602   YZ=              0.7088

 Summary of Natural Population Analysis:

                                       Natural Population
                Natural  -----------------------------------------------
    Atom  No    Charge         Core      Valence    Rydberg      Total
 -----------------------------------------------------------------------
      P    1    1.14975      9.99637     3.80184    0.05204    13.85025
      P    2    1.14898      9.99637     3.80308    0.05158    13.85102
      C    3   -0.80668      1.99920     4.78217    0.02530     6.80668
      C    4   -0.34195      1.99899     4.31984    0.02311     6.34195
      C    5   -0.19730      1.99909     4.18299    0.01522     6.19730
      C    6   -0.18901      1.99920     4.17522    0.01460     6.18901
      C    7   -0.18112      1.99920     4.16730    0.01462     6.18112
      C    8   -0.18867      1.99920     4.17481    0.01466     6.18867
      C    9   -0.19980      1.99909     4.18541    0.01530     6.19980
      C   10   -0.35382      1.99897     4.33009    0.02477     6.35382
      C   11   -0.17837      1.99909     4.16408    0.01520     6.17837
      C   12   -0.20339      1.99919     4.18958    0.01462     6.20339
      C   13   -0.17159      1.99921     4.15790    0.01449     6.17159
      C   14   -0.19676      1.99919     4.18303    0.01454     6.19676
      C   15   -0.16112      1.99909     4.14589    0.01614     6.16112
      C   16   -0.35130      1.99899     4.32859    0.02372     6.35130
      C   17   -0.19210      1.99909     4.17776    0.01524     6.19210
      C   18   -0.19469      1.99920     4.18089    0.01460     6.19469
      C   19   -0.17361      1.99921     4.15991    0.01450     6.17361
      C   20   -0.19039      1.99920     4.17671    0.01448     6.19039
      C   21   -0.18248      1.99909     4.16753    0.01586     6.18248
      C   22   -0.35370      1.99899     4.33075    0.02396     6.35370
      C   23   -0.19855      1.99909     4.18223    0.01723     6.19855
      C   24   -0.19240      1.99920     4.17782    0.01538     6.19240
      C   25   -0.18151      1.99920     4.16749    0.01481     6.18151
      C   26   -0.19538      1.99919     4.18141    0.01477     6.19538
      C   27   -0.20128      1.99909     4.18697    0.01521     6.20128
      H   28    0.28158      0.00000     0.71564    0.00278     0.71842
      H   29    0.21699      0.00000     0.78118    0.00184     0.78301
      H   30    0.22308      0.00000     0.77569    0.00122     0.77692
      H   31    0.22333      0.00000     0.77551    0.00117     0.77667
      H   32    0.22227      0.00000     0.77651    0.00122     0.77773
      H   33    0.21394      0.00000     0.78404    0.00201     0.78606
      H   34    0.22254      0.00000     0.77529    0.00217     0.77746
      H   35    0.21996      0.00000     0.77878    0.00126     0.78004
      H   36    0.22095      0.00000     0.77786    0.00118     0.77905
      H   37    0.22093      0.00000     0.77782    0.00125     0.77907
      H   38    0.22093      0.00000     0.77694    0.00213     0.77907
      H   39    0.21939      0.00000     0.77869    0.00192     0.78061
      H   40    0.22120      0.00000     0.77756    0.00123     0.77880
      H   41    0.22274      0.00000     0.77609    0.00117     0.77726
      H   42    0.22241      0.00000     0.77637    0.00123     0.77759
      H   43    0.22260      0.00000     0.77547    0.00193     0.77740
      H   44    0.24612      0.00000     0.75095    0.00294     0.75388
      H   45    0.22054      0.00000     0.77807    0.00139     0.77946
      H   46    0.22143      0.00000     0.77743    0.00114     0.77857
      H   47    0.22193      0.00000     0.77684    0.00123     0.77807
      H   48    0.21684      0.00000     0.78133    0.00183     0.78316
     Rh   49   -0.40137     35.98556     9.38612    0.02969    45.40137
      C   50   -0.17583      1.99906     4.15730    0.01947     6.17583
      C   51   -0.15621      1.99907     4.13734    0.01979     6.15621
      C   52   -0.17796      1.99906     4.15939    0.01951     6.17796
      C   53   -0.15532      1.99907     4.13648    0.01977     6.15532
      C   54   -0.42379      1.99936     4.41262    0.01182     6.42379
      H   55    0.22690      0.00000     0.77089    0.00221     0.77310
      H   56    0.22841      0.00000     0.76947    0.00213     0.77159
      C   57   -0.41979      1.99935     4.40818    0.01226     6.41979
      C   58   -0.42344      1.99936     4.41230    0.01177     6.42344
      H   59    0.22562      0.00000     0.77228    0.00210     0.77438
      C   60   -0.41827      1.99935     4.40630    0.01262     6.41827
      H   61    0.23126      0.00000     0.76650    0.00224     0.76874
      H   62    0.22786      0.00000     0.77063    0.00151     0.77214
      H   63    0.21483      0.00000     0.78316    0.00201     0.78517
      H   64    0.23409      0.00000     0.76401    0.00190     0.76591
      H   65    0.21927      0.00000     0.77929    0.00144     0.78073
      H   66    0.21477      0.00000     0.78326    0.00197     0.78523
      H   67    0.22854      0.00000     0.76998    0.00148     0.77146
      H   68    0.21651      0.00000     0.78195    0.00153     0.78349
      H   69    0.23373      0.00000     0.76436    0.00191     0.76627
      C   70    0.49172      1.99909     3.47410    0.03510     5.50828
      O   71   -0.47272      1.99979     6.45970    0.01324     8.47272
      C   72    0.06248      1.99944     3.92212    0.01596     5.93752
      C   73   -0.09417      1.99921     4.08030    0.01466     6.09417
      H   74    0.18891      0.00000     0.80927    0.00182     0.81109
      H   75    0.19517      0.00000     0.80313    0.00170     0.80483
      N   76   -0.45624      1.99928     5.43981    0.01715     7.45624
      C   77   -0.59072      1.99937     4.58426    0.00709     6.59072
      H   78    0.21212      0.00000     0.78666    0.00122     0.78788
      H   79    0.21779      0.00000     0.78079    0.00141     0.78221
      H   80    0.20869      0.00000     0.78996    0.00135     0.79131
      C   81   -0.59236      1.99937     4.58596    0.00703     6.59236
      H   82    0.21802      0.00000     0.78050    0.00148     0.78198
      H   83    0.21254      0.00000     0.78620    0.00126     0.78746
      H   84    0.20553      0.00000     0.79315    0.00133     0.79447
 =======================================================================
   * Total *    1.00000    135.94579   221.19307    0.86114   358.00000

 Normal termination of Gaussian 16 at Wed Jan 22 04:38:06 2025.
