 Gaussian 16, Revision B.01,
 Gaussian 16:  ES64L-G16RevB.01 20-Dec-2017

 ------------------------------------------
 # nmr=giao b3lyp/genecp pop=nbo scfcyc=200
 ------------------------------------------

 ---------
 MS-33_SPE
 ---------
 Symbolic Z-matrix:
 Charge =  1 Multiplicity = 1

                         Standard orientation:
 ---------------------------------------------------------------------
 Center     Atomic      Atomic             Coordinates (Angstroms)
 Number     Number       Type             X           Y           Z
 ---------------------------------------------------------------------
      1         15           0       -0.784869   -0.939899    0.175710
      2         15           0        0.962051    1.241851    0.048000
      3          6           0       -0.913309    0.948491    0.069980
      4          6           0       -1.866249    1.814671    0.912700
      5          6           0       -2.085449   -1.696649   -0.888350
      6          6           0       -2.769469   -2.844349   -0.479950
      7          6           0       -3.673839   -3.464019   -1.337450
      8          6           0       -3.902489   -2.948549   -2.607720
      9          6           0       -3.214489   -1.812649   -3.025490
     10          6           0       -2.304959   -1.195829   -2.176020
     11          6           0       -1.135929   -1.465279    1.902020
     12          6           0       -0.114709   -2.061089    2.649050
     13          6           0       -0.349109   -2.470319    3.957590
     14          6           0       -1.603459   -2.285559    4.529140
     15          6           0       -2.622779   -1.688169    3.791950
     16          6           0       -2.397699   -1.278019    2.482450
     17          6           0        1.176661    2.633671   -1.143070
     18          6           0        1.370111    2.332241   -2.494770
     19          6           0        1.446701    3.350451   -3.439370
     20          6           0        1.332781    4.678521   -3.042440
     21          6           0        1.137431    4.986631   -1.699170
     22          6           0        1.057691    3.972041   -0.751820
     23          6           0        1.573111    1.872331    1.665800
     24          6           0        0.939211    1.567871    2.873580
     25          6           0        1.495641    1.975391    4.081660
     26          6           0        2.695081    2.678001    4.100930
     27          6           0        3.341881    2.970441    2.904060
     28          6           0        2.788771    2.568681    1.694300
     29          1           0       -1.138049    1.118791   -0.987320
     30          1           0       -1.944779    1.423911    1.926420
     31          1           0       -1.435009    2.815351    0.990850
     32          1           0       -2.609409   -3.254989    0.507700
     33          1           0       -4.201270   -4.350099   -1.006960
     34          1           0       -4.608729   -3.430719   -3.271710
     35          1           0       -3.383669   -1.407819   -4.015480
     36          1           0       -1.769279   -0.323029   -2.529200
     37          1           0        0.864201   -2.195539    2.206590
     38          1           0        0.446331   -2.933459    4.527890
     39          1           0       -1.787559   -2.606539    5.546930
     40          1           0       -3.599059   -1.540769    4.236940
     41          1           0       -3.192039   -0.804979    1.916050
     42          1           0        1.459131    1.298851   -2.807160
     43          1           0        1.601551    3.106371   -4.482910
     44          1           0        1.398951    5.471831   -3.776280
     45          1           0        1.049861    6.019651   -1.386370
     46          1           0        0.915951    4.227841    0.290140
     47          1           0        0.016121    1.006551    2.887730
     48          1           0        0.987801    1.740581    5.008620
     49          1           0        3.124961    2.994891    5.042640
     50          1           0        4.278241    3.514210    2.909950
     51          1           0        3.303181    2.811641    0.772870
     52         45           0        1.473721   -0.987569   -0.497170
     53          6           0        3.463651   -0.764139   -1.622720
     54          6           0        3.718741   -0.961000   -0.283120
     55          6           0        1.888301   -3.235159   -0.506280
     56          6           0        1.418921   -2.856129   -1.746770
     57          6           0        3.568561   -1.820169   -2.707210
     58          1           0        3.451191    0.262701   -1.969710
     59          1           0        3.906371   -0.078970    0.321260
     60          6           0        4.084761   -2.261580    0.388590
     61          6           0        3.339401   -3.501969   -0.151220
     62          1           0        1.157181   -3.636899    0.186810
     63          6           0        2.243911   -2.566249   -2.976470
     64          1           0        0.362381   -3.006849   -1.942780
     65          1           0        3.885981   -1.336430   -3.632620
     66          1           0        4.358521   -2.527250   -2.455150
     67          1           0        5.168121   -2.419700    0.314970
     68          1           0        3.874301   -2.152720    1.454860
     69          1           0        3.860010   -3.911290   -1.016690
     70          1           0        3.371860   -4.281429    0.611880
     71          1           0        1.628241   -1.970099   -3.653740
     72          1           0        2.448341   -3.503699   -3.509090
     73          6           0       -3.254579    1.925961    0.320730
     74          6           0       -3.638929    3.051721   -0.408810
     75          6           0       -4.921769    3.107581   -0.939300
     76          1           0       -2.947429    3.873081   -0.550350
     77          1           0       -5.245489    3.974101   -1.502480
     78          6           0       -5.781279    2.037701   -0.727330
     79          1           0       -6.790649    2.038891   -1.116850
     80          6           0       -5.313929    0.956881    0.011060
     81          1           0       -5.954309    0.102601    0.202740
     82          7           0       -4.084079    0.895481    0.525940
 ---------------------------------------------------------------------

 SCF Done:  E(RB3LYP) =  -2358.10107865     A.U. after   16 cycles

      1  P    Isotropic =   287.9833   Anisotropy =    66.7348

      2  P    Isotropic =   286.4156   Anisotropy =    96.7963

      3  C    Isotropic =   107.0536   Anisotropy =    53.6970

      4  C    Isotropic =   144.5829   Anisotropy =    32.5621

      5  C    Isotropic =    43.4063   Anisotropy =   172.9261

      6  C    Isotropic =    47.6662   Anisotropy =   190.3523

      7  C    Isotropic =    49.1169   Anisotropy =   189.5192

      8  C    Isotropic =    47.6474   Anisotropy =   194.6704

      9  C    Isotropic =    49.8490   Anisotropy =   189.4889

     10  C    Isotropic =    50.5320   Anisotropy =   189.4691

     11  C    Isotropic =    51.6005   Anisotropy =   164.5145

     12  C    Isotropic =    39.1748   Anisotropy =   181.3248

     13  C    Isotropic =    49.4101   Anisotropy =   187.7493

     14  C    Isotropic =    44.2047   Anisotropy =   199.5775

     15  C    Isotropic =    48.6637   Anisotropy =   189.9195

     16  C    Isotropic =    38.9180   Anisotropy =   206.1950

     17  C    Isotropic =    42.9869   Anisotropy =   178.2212

     18  C    Isotropic =    44.1161   Anisotropy =   179.2609

     19  C    Isotropic =    48.3236   Anisotropy =   189.0751

     20  C    Isotropic =    44.9704   Anisotropy =   197.7692

     21  C    Isotropic =    48.7109   Anisotropy =   189.3200

     22  C    Isotropic =    46.4363   Anisotropy =   189.2381

     23  C    Isotropic =    47.7818   Anisotropy =   163.4942

     24  C    Isotropic =    47.5234   Anisotropy =   186.2809

     25  C    Isotropic =    49.6324   Anisotropy =   188.8330

     26  C    Isotropic =    46.8839   Anisotropy =   195.5827

     27  C    Isotropic =    48.5555   Anisotropy =   190.6640

     28  C    Isotropic =    47.1314   Anisotropy =   189.1675

     29  H    Isotropic =    27.6589   Anisotropy =     4.5576

     30  H    Isotropic =    28.1443   Anisotropy =     3.5294

     31  H    Isotropic =    29.2042   Anisotropy =     6.1342

     32  H    Isotropic =    24.8146   Anisotropy =    12.8652

     33  H    Isotropic =    24.3574   Anisotropy =     6.4210

     34  H    Isotropic =    24.3012   Anisotropy =     3.2457

     35  H    Isotropic =    24.4831   Anisotropy =     6.5321

     36  H    Isotropic =    24.6339   Anisotropy =     9.5608

     37  H    Isotropic =    23.2009   Anisotropy =     9.6714

     38  H    Isotropic =    23.9728   Anisotropy =     6.8081

     39  H    Isotropic =    23.7260   Anisotropy =     3.5274

     40  H    Isotropic =    23.7879   Anisotropy =     6.4063

     41  H    Isotropic =    21.7951   Anisotropy =     8.7224

     42  H    Isotropic =    23.3581   Anisotropy =    10.3058

     43  H    Isotropic =    23.9212   Anisotropy =     6.9608

     44  H    Isotropic =    23.8838   Anisotropy =     3.6486

     45  H    Isotropic =    24.1110   Anisotropy =     6.4198

     46  H    Isotropic =    24.2649   Anisotropy =    12.2892

     47  H    Isotropic =    25.1695   Anisotropy =     7.1461

     48  H    Isotropic =    24.5826   Anisotropy =     8.1723

     49  H    Isotropic =    24.1670   Anisotropy =     4.0007

     50  H    Isotropic =    24.2325   Anisotropy =     6.0223

     51  H    Isotropic =    24.7005   Anisotropy =    11.3976

     52  Rh   Isotropic =  -300.0426   Anisotropy =   331.6093

     53  C    Isotropic =    78.3454   Anisotropy =   122.1388

     54  C    Isotropic =    74.0135   Anisotropy =   121.1514

     55  C    Isotropic =    80.7041   Anisotropy =   118.9434

     56  C    Isotropic =    72.5262   Anisotropy =   123.4434

     57  C    Isotropic =   153.9766   Anisotropy =    25.0263

     58  H    Isotropic =    26.8057   Anisotropy =     6.1063

     59  H    Isotropic =    26.6513   Anisotropy =     4.2376

     60  C    Isotropic =   148.0357   Anisotropy =    28.6643

     61  C    Isotropic =   154.0317   Anisotropy =    24.8572

     62  H    Isotropic =    27.0824   Anisotropy =     6.0863

     63  C    Isotropic =   147.8306   Anisotropy =    29.4010

     64  H    Isotropic =    27.1628   Anisotropy =     4.3575

     65  H    Isotropic =    29.7885   Anisotropy =    11.5946

     66  H    Isotropic =    29.7810   Anisotropy =     9.8192

     67  H    Isotropic =    29.2359   Anisotropy =    12.7756

     68  H    Isotropic =    29.3077   Anisotropy =     7.1648

     69  H    Isotropic =    29.8138   Anisotropy =     9.9339

     70  H    Isotropic =    29.8507   Anisotropy =    11.5609

     71  H    Isotropic =    29.1517   Anisotropy =     7.1245

     72  H    Isotropic =    29.2840   Anisotropy =    12.5498

     73  C    Isotropic =    18.0470   Anisotropy =   185.7684

     74  C    Isotropic =    57.0729   Anisotropy =   160.3708

     75  C    Isotropic =    41.1630   Anisotropy =   206.8667

     76  H    Isotropic =    25.2167   Anisotropy =    10.3296

     77  H    Isotropic =    24.3156   Anisotropy =     5.9337

     78  C    Isotropic =    56.8114   Anisotropy =   181.5225

     79  H    Isotropic =    24.8445   Anisotropy =     3.5261

     80  C    Isotropic =    29.4749   Anisotropy =   176.5346

     81  H    Isotropic =    23.8112   Anisotropy =     7.4695

     82  N    Isotropic =   -87.7995   Anisotropy =   544.2289

 The electronic state is 1-A.
 Alpha  occ. eigenvalues --  -77.23558 -77.23315 -14.40148 -10.31110 -10.30720
 Alpha  occ. eigenvalues --  -10.29574 -10.29523 -10.29423 -10.29081 -10.29010
 Alpha  occ. eigenvalues --  -10.28729 -10.28643 -10.28475 -10.28366 -10.28364
 Alpha  occ. eigenvalues --  -10.28307 -10.28262 -10.28015 -10.27979 -10.27895
 Alpha  occ. eigenvalues --  -10.27825 -10.27813 -10.27699 -10.27648 -10.27606
 Alpha  occ. eigenvalues --  -10.27490 -10.27293 -10.27285 -10.27256 -10.27200
 Alpha  occ. eigenvalues --  -10.27199 -10.27189 -10.27182 -10.27117 -10.27065
 Alpha  occ. eigenvalues --  -10.27060 -10.27004 -10.26961 -10.26959 -10.26926
 Alpha  occ. eigenvalues --  -10.26869 -10.26687  -6.69516  -6.69264  -4.85791
 Alpha  occ. eigenvalues --   -4.85751  -4.85538  -4.85488  -4.85413  -4.85179
 Alpha  occ. eigenvalues --   -3.31107  -2.07996  -2.07342  -2.04582  -1.03865
 Alpha  occ. eigenvalues --   -0.96760  -0.96208  -0.95962  -0.95548  -0.94061
 Alpha  occ. eigenvalues --   -0.91296  -0.89396  -0.88784  -0.87670  -0.87514
 Alpha  occ. eigenvalues --   -0.86934  -0.85380  -0.85086  -0.84806  -0.84761
 Alpha  occ. eigenvalues --   -0.84711  -0.84325  -0.83915  -0.80003  -0.78681
 Alpha  occ. eigenvalues --   -0.77476  -0.75377  -0.72406  -0.72271  -0.71265
 Alpha  occ. eigenvalues --   -0.70884  -0.70723  -0.70360  -0.70231  -0.70156
 Alpha  occ. eigenvalues --   -0.69715  -0.69368  -0.66802  -0.65717  -0.65463
 Alpha  occ. eigenvalues --   -0.62529  -0.62088  -0.61777  -0.60942  -0.60564
 Alpha  occ. eigenvalues --   -0.60276  -0.59624  -0.58533  -0.56714  -0.56636
 Alpha  occ. eigenvalues --   -0.56289  -0.55975  -0.55733  -0.55654  -0.55543
 Alpha  occ. eigenvalues --   -0.55369  -0.55154  -0.54880  -0.54470  -0.53652
 Alpha  occ. eigenvalues --   -0.53328  -0.53095  -0.52791  -0.52379  -0.52365
 Alpha  occ. eigenvalues --   -0.52227  -0.52219  -0.52093  -0.51612  -0.51089
 Alpha  occ. eigenvalues --   -0.50765  -0.49533  -0.49024  -0.48322  -0.48021
 Alpha  occ. eigenvalues --   -0.47971  -0.47673  -0.47490  -0.47254  -0.46935
 Alpha  occ. eigenvalues --   -0.46746  -0.46077  -0.45771  -0.45676  -0.45223
 Alpha  occ. eigenvalues --   -0.45108  -0.44688  -0.44502  -0.44410  -0.43439
 Alpha  occ. eigenvalues --   -0.43046  -0.42871  -0.42703  -0.42328  -0.42188
 Alpha  occ. eigenvalues --   -0.40985  -0.37948  -0.37703  -0.37322  -0.36661
 Alpha  occ. eigenvalues --   -0.36252  -0.36042  -0.35806  -0.35743  -0.35447
 Alpha  occ. eigenvalues --   -0.35202  -0.35146  -0.34733  -0.34426  -0.34132
 Alpha  occ. eigenvalues --   -0.33671  -0.33196  -0.30289
 Alpha virt. eigenvalues --   -0.16016  -0.14474  -0.13744  -0.12912  -0.12401
 Alpha virt. eigenvalues --   -0.12196  -0.11965  -0.11418  -0.10813  -0.10703
 Alpha virt. eigenvalues --   -0.10303  -0.09886  -0.08926  -0.07316  -0.06197

 Mulliken charges:
               1
     1  P    0.404601
     2  P    0.423690
     3  C   -0.583492
     4  C   -0.281848
     5  C   -0.113178
     6  C   -0.076105
     7  C   -0.102504
     8  C   -0.099470
     9  C   -0.106413
    10  C   -0.068309
    11  C   -0.436671
    12  C    0.037978
    13  C   -0.137877
    14  C   -0.071076
    15  C   -0.129639
    16  C   -0.011543
    17  C   -0.228697
    18  C   -0.080123
    19  C   -0.104178
    20  C   -0.087766
    21  C   -0.095194
    22  C   -0.094624
    23  C   -0.106024
    24  C   -0.060974
    25  C   -0.132698
    26  C   -0.094161
    27  C   -0.089985
    28  C   -0.133879
    29  H    0.227666
    30  H    0.172630
    31  H    0.170962
    32  H    0.161371
    33  H    0.132473
    34  H    0.135876
    35  H    0.126833
    36  H    0.125622
    37  H    0.168299
    38  H    0.128975
    39  H    0.135744
    40  H    0.132716
    41  H    0.245302
    42  H    0.183383
    43  H    0.130421
    44  H    0.139285
    45  H    0.136025
    46  H    0.162809
    47  H    0.164578
    48  H    0.131757
    49  H    0.137107
    50  H    0.134694
    51  H    0.163616
    52  Rh  -0.612732
    53  C   -0.052079
    54  C   -0.102404
    55  C   -0.044328
    56  C   -0.090224
    57  C   -0.342634
    58  H    0.198170
    59  H    0.194544
    60  C   -0.213388
    61  C   -0.356419
    62  H    0.194853
    63  C   -0.231380
    64  H    0.212821
    65  H    0.166114
    66  H    0.166217
    67  H    0.171587
    68  H    0.132657
    69  H    0.165757
    70  H    0.167598
    71  H    0.128107
    72  H    0.170764
    73  C   -0.003118
    74  C   -0.063008
    75  C   -0.147888
    76  H    0.149770
    77  H    0.133268
    78  C   -0.042265
    79  H    0.149583
    80  C   -0.123574
    81  H    0.114444
    82  N   -0.078802
 Sum of Mulliken charges =   1.00000

 Dipole moment (field-independent basis, Debye):
    X=              0.3862    Y=              1.0220    Z=             -1.0102  Tot=              1.4880
 Quadrupole moment (field-independent basis, Debye-Ang):
   XX=           -220.7530   YY=           -227.7602   ZZ=           -230.4956
   XY=             -0.0622   XZ=              5.5347   YZ=             -6.0131

 Summary of Natural Population Analysis:

                                       Natural Population
                Natural  -----------------------------------------------
    Atom  No    Charge         Core      Valence    Rydberg      Total
 -----------------------------------------------------------------------
      P    1    1.13687      9.99634     3.81300    0.05379    13.86313
      P    2    1.12747      9.99637     3.82414    0.05202    13.87253
      C    3   -0.72349      1.99936     4.70095    0.02317     6.72349
      C    4   -0.44580      1.99929     4.42877    0.01773     6.44580
      C    5   -0.33172      1.99898     4.30793    0.02481     6.33172
      C    6   -0.19396      1.99910     4.17939    0.01548     6.19396
      C    7   -0.19033      1.99920     4.17625    0.01488     6.19033
      C    8   -0.18477      1.99920     4.17077    0.01480     6.18477
      C    9   -0.19217      1.99920     4.17811    0.01486     6.19217
      C   10   -0.19589      1.99909     4.18130    0.01549     6.19589
      C   11   -0.36589      1.99898     4.34294    0.02397     6.36589
      C   12   -0.18033      1.99909     4.16572    0.01552     6.18033
      C   13   -0.20376      1.99919     4.18992    0.01465     6.20376
      C   14   -0.17385      1.99921     4.16011    0.01453     6.17385
      C   15   -0.19778      1.99919     4.18412    0.01447     6.19778
      C   16   -0.20132      1.99909     4.18620    0.01603     6.20132
      C   17   -0.34495      1.99899     4.32225    0.02371     6.34495
      C   18   -0.19374      1.99910     4.17923    0.01542     6.19374
      C   19   -0.19477      1.99920     4.18097    0.01460     6.19477
      C   20   -0.17699      1.99921     4.16320    0.01458     6.17699
      C   21   -0.19294      1.99920     4.17906    0.01468     6.19294
      C   22   -0.19499      1.99910     4.17996    0.01594     6.19499
      C   23   -0.34584      1.99899     4.32331    0.02355     6.34584
      C   24   -0.19364      1.99909     4.17946    0.01509     6.19364
      C   25   -0.19026      1.99920     4.17652    0.01454     6.19026
      C   26   -0.18203      1.99920     4.16820    0.01463     6.18203
      C   27   -0.19177      1.99920     4.17790    0.01467     6.19177
      C   28   -0.20088      1.99910     4.18661    0.01517     6.20088
      H   29    0.25714      0.00000     0.74032    0.00255     0.74286
      H   30    0.23280      0.00000     0.76481    0.00239     0.76720
      H   31    0.22243      0.00000     0.77487    0.00269     0.77757
      H   32    0.22321      0.00000     0.77500    0.00179     0.77679
      H   33    0.22157      0.00000     0.77722    0.00120     0.77843
      H   34    0.22145      0.00000     0.77739    0.00116     0.77855
      H   35    0.21968      0.00000     0.77911    0.00122     0.78032
      H   36    0.20649      0.00000     0.79158    0.00192     0.79351
      H   37    0.22201      0.00000     0.77585    0.00214     0.77799
      H   38    0.22052      0.00000     0.77823    0.00124     0.77948
      H   39    0.22149      0.00000     0.77732    0.00118     0.77851
      H   40    0.22227      0.00000     0.77648    0.00125     0.77773
      H   41    0.25665      0.00000     0.74083    0.00253     0.74335
      H   42    0.22027      0.00000     0.77779    0.00194     0.77973
      H   43    0.22129      0.00000     0.77749    0.00123     0.77871
      H   44    0.22313      0.00000     0.77570    0.00117     0.77687
      H   45    0.22292      0.00000     0.77585    0.00123     0.77708
      H   46    0.22191      0.00000     0.77617    0.00192     0.77809
      H   47    0.21684      0.00000     0.78097    0.00219     0.78316
      H   48    0.22156      0.00000     0.77719    0.00124     0.77844
      H   49    0.22250      0.00000     0.77633    0.00117     0.77750
      H   50    0.22245      0.00000     0.77632    0.00123     0.77755
      H   51    0.21914      0.00000     0.77908    0.00178     0.78086
     Rh   52   -0.40147     35.98578     9.38710    0.02858    45.40147
      C   53   -0.17830      1.99906     4.15959    0.01964     6.17830
      C   54   -0.15820      1.99908     4.13936    0.01976     6.15820
      C   55   -0.18366      1.99906     4.16514    0.01946     6.18366
      C   56   -0.15295      1.99908     4.13430    0.01957     6.15295
      C   57   -0.42393      1.99936     4.41270    0.01187     6.42393
      H   58    0.22524      0.00000     0.77262    0.00215     0.77476
      H   59    0.22864      0.00000     0.76923    0.00213     0.77136
      C   60   -0.41859      1.99935     4.40663    0.01260     6.41859
      C   61   -0.42331      1.99936     4.41213    0.01182     6.42331
      H   62    0.22630      0.00000     0.77173    0.00196     0.77370
      C   63   -0.41759      1.99935     4.40566    0.01258     6.41759
      H   64    0.23336      0.00000     0.76470    0.00194     0.76664
      H   65    0.22678      0.00000     0.77171    0.00150     0.77322
      H   66    0.21490      0.00000     0.78311    0.00199     0.78510
      H   67    0.23382      0.00000     0.76428    0.00190     0.76618
      H   68    0.21618      0.00000     0.78225    0.00157     0.78382
      H   69    0.21465      0.00000     0.78336    0.00199     0.78535
      H   70    0.22760      0.00000     0.77091    0.00148     0.77240
      H   71    0.21507      0.00000     0.78337    0.00156     0.78493
      H   72    0.23353      0.00000     0.76456    0.00191     0.76647
      C   73    0.19740      1.99916     3.77912    0.02432     5.80260
      C   74   -0.24501      1.99907     4.23192    0.01402     6.24501
      C   75   -0.15243      1.99920     4.13840    0.01482     6.15243
      H   76    0.21721      0.00000     0.78124    0.00156     0.78279
      H   77    0.22187      0.00000     0.77695    0.00118     0.77813
      C   78   -0.24234      1.99916     4.22903    0.01414     6.24234
      H   79    0.22556      0.00000     0.77322    0.00122     0.77444
      C   80    0.04639      1.99925     3.93233    0.02203     5.95361
      H   81    0.19692      0.00000     0.80144    0.00164     0.80308
      N   82   -0.44385      1.99940     5.42423    0.02023     7.44385
 =======================================================================
   * Total *    1.00000    135.94517   217.18056    0.87427   354.00000

 Normal termination of Gaussian 16 at Wed Jan 22 04:49:21 2025.
