 Gaussian 16, Revision B.01,
 Gaussian 16:  ES64L-G16RevB.01 20-Dec-2017

 ------------------------------------------
 # nmr=giao b3lyp/genecp pop=nbo scfcyc=200
 ------------------------------------------

 ---------
 MS-37_SPE
 ---------
 Symbolic Z-matrix:
 Charge =  1 Multiplicity = 1

                         Standard orientation:
 ---------------------------------------------------------------------
 Center     Atomic      Atomic             Coordinates (Angstroms)
 Number     Number       Type             X           Y           Z
 ---------------------------------------------------------------------
      1         15           0        0.022600   -1.299400    0.087530
      2         15           0        0.568102    1.442329   -0.037470
      3          6           0       -0.326141   -1.944170    1.777600
      4          6           0        0.622380   -1.777231    2.790480
      5          1           0        1.560390   -1.283051    2.568450
      6          6           0        0.367609   -2.244770    4.076140
      7          1           0        1.110969   -2.115901    4.852870
      8          6           0       -0.834551   -2.883789    4.359220
      9          1           0       -1.030472   -3.253209    5.357990
     10          6           0       -1.783311   -3.057429    3.354620
     11          1           0       -2.717312   -3.560688    3.570850
     12          6           0       -1.532661   -2.592529    2.069270
     13          1           0       -2.268611   -2.753398    1.291450
     14          6           0       -0.633381   -2.596070   -1.045860
     15          6           0       -0.185592   -3.909950   -0.850870
     16          1           0        0.447068   -4.154071   -0.005720
     17          6           0       -0.566293   -4.919040   -1.725680
     18          1           0       -0.219524   -5.931430   -1.560410
     19          6           0       -1.392033   -4.629259   -2.808770
     20          1           0       -1.689443   -5.416269   -3.490220
     21          6           0       -1.837942   -3.328209   -3.007260
     22          1           0       -2.488551   -3.097328   -3.841380
     23          6           0       -1.459301   -2.310519   -2.135120
     24          1           0       -1.841870   -1.312979   -2.302010
     25          6           0       -0.945749    0.309721   -0.139220
     26          1           0       -1.152219    0.345221   -1.213480
     27          6           0       -2.251598    0.613652    0.590460
     28          1           0       -2.375779    0.017812    1.494820
     29          1           0       -2.271798    1.654922    0.924020
     30          6           0       -3.486209    0.430203   -0.292100
     31          6           0       -5.964719    0.421895   -0.126290
     32          6           0       -6.844238    0.546415    1.112570
     33          1           0       -6.654829   -0.273125    1.806900
     34          1           0       -7.895549    0.516046    0.823230
     35          1           0       -6.656428    1.488755    1.628450
     36          6           0        0.602163    2.375089    1.549580
     37          6           0        0.038323    1.868110    2.723880
     38          1           0       -0.509668    0.936600    2.717060
     39          6           0        0.180703    2.553460    3.926010
     40          1           0       -0.270727    2.153350    4.825210
     41          6           0        0.896704    3.744289    3.974360
     42          1           0        1.004765    4.276549    4.910860
     43          6           0        1.474555    4.248529    2.813330
     44          1           0        2.035655    5.174158    2.842310
     45          6           0        1.331974    3.569639    1.609120
     46          1           0        1.781384    3.982078    0.714500
     47          6           0        0.284733    2.700330   -1.353030
     48          6           0       -0.504146    3.835440   -1.136050
     49          1           0       -0.905086    4.045891   -0.153030
     50          6           0       -0.769335    4.710820   -2.182530
     51          1           0       -1.378584    5.588341   -2.005790
     52          6           0       -0.255675    4.462100   -3.452080
     53          1           0       -0.463285    5.147570   -4.264010
     54          6           0        0.523884    3.332629   -3.676030
     55          1           0        0.924284    3.135029   -4.662430
     56          6           0        0.794293    2.455009   -2.631510
     57          1           0        1.396602    1.572709   -2.810380
     58          8           0       -4.585179    0.482904    0.453640
     59          8           0       -3.437749    0.288703   -1.493240
     60         45           0        2.125201   -0.300652   -0.277260
     61          6           0        3.540279   -2.067053    0.063700
     62          6           0        3.178119   -2.028393   -1.266040
     63          6           0        3.939912    0.796837   -1.147850
     64          6           0        4.017132    0.816177    0.228170
     65          6           0        4.858600   -1.580014    0.635690
     66          1           0        2.969629   -2.727673    0.707520
     67          1           0        2.366379   -2.677022   -1.578610
     68          6           0        3.973720   -1.437923   -2.404010
     69          6           0        4.718681   -0.128834   -2.064000
     70          1           0        3.507622    1.669837   -1.623480
     71          6           0        4.826951   -0.108594    1.103250
     72          1           0        3.662992    1.709457    0.732790
     73          1           0        5.118549   -2.207094    1.490180
     74          1           0        5.652650   -1.728955   -0.095670
     75          1           0        4.686979   -2.183354   -2.777840
     76          1           0        3.281310   -1.252343   -3.227980
     77          1           0        5.690841   -0.347985   -1.622820
     78          1           0        4.926501    0.400496   -2.995440
     79          1           0        4.407981   -0.061214    2.110880
     80          1           0        5.851781    0.273875    1.190280
     81          6           0       -6.172838    1.602585   -1.070700
     82          1           0       -5.958567    2.543985   -0.561380
     83          1           0       -5.546698    1.525534   -1.956940
     84          1           0       -7.216928    1.624746   -1.387990
     85          6           0       -6.170280   -0.924535   -0.814810
     86          1           0       -5.951070   -1.744605   -0.128490
     87          1           0       -7.214950   -1.013384   -1.118340
     88          1           0       -5.545870   -1.023036   -1.699960
 ---------------------------------------------------------------------

 SCF Done:  E(RB3LYP) =  -2456.88059632     A.U. after   16 cycles

      1  P    Isotropic =   287.2357   Anisotropy =    63.5863

      2  P    Isotropic =   286.2514   Anisotropy =    98.1876

      3  C    Isotropic =    47.0013   Anisotropy =   171.9434

      4  C    Isotropic =    39.9264   Anisotropy =   182.2900

      5  H    Isotropic =    23.1679   Anisotropy =     9.2853

      6  C    Isotropic =    49.4880   Anisotropy =   187.6858

      7  H    Isotropic =    24.0313   Anisotropy =     6.7467

      8  C    Isotropic =    44.7521   Anisotropy =   198.2585

      9  H    Isotropic =    23.8757   Anisotropy =     3.5656

     10  C    Isotropic =    48.7740   Anisotropy =   189.2033

     11  H    Isotropic =    24.1487   Anisotropy =     6.4428

     12  C    Isotropic =    43.0965   Anisotropy =   192.3606

     13  H    Isotropic =    24.6896   Anisotropy =    10.8430

     14  C    Isotropic =    45.5400   Anisotropy =   167.2951

     15  C    Isotropic =    48.1149   Anisotropy =   186.8346

     16  H    Isotropic =    25.0284   Anisotropy =    11.5019

     17  C    Isotropic =    48.8863   Anisotropy =   190.1274

     18  H    Isotropic =    24.3175   Anisotropy =     6.4756

     19  C    Isotropic =    46.7195   Anisotropy =   195.7460

     20  H    Isotropic =    24.1198   Anisotropy =     3.4629

     21  C    Isotropic =    48.7778   Anisotropy =   190.5272

     22  H    Isotropic =    24.0875   Anisotropy =     6.7440

     23  C    Isotropic =    47.1267   Anisotropy =   196.5872

     24  H    Isotropic =    23.3295   Anisotropy =     9.3600

     25  C    Isotropic =   119.7598   Anisotropy =    56.8018

     26  H    Isotropic =    26.4737   Anisotropy =     5.9957

     27  C    Isotropic =   147.2622   Anisotropy =    49.0346

     28  H    Isotropic =    29.2991   Anisotropy =     5.6974

     29  H    Isotropic =    29.4614   Anisotropy =     6.1230

     30  C    Isotropic =     6.5381   Anisotropy =    87.8596

     31  C    Isotropic =    92.0205   Anisotropy =    89.7109

     32  C    Isotropic =   152.9605   Anisotropy =    48.9503

     33  H    Isotropic =    30.6100   Anisotropy =     7.0408

     34  H    Isotropic =    30.9395   Anisotropy =     9.9001

     35  H    Isotropic =    30.6147   Anisotropy =     7.1245

     36  C    Isotropic =    47.6582   Anisotropy =   165.1142

     37  C    Isotropic =    47.5956   Anisotropy =   186.8656

     38  H    Isotropic =    25.0852   Anisotropy =     7.6154

     39  C    Isotropic =    49.7837   Anisotropy =   189.0958

     40  H    Isotropic =    24.4454   Anisotropy =     7.7852

     41  C    Isotropic =    46.8099   Anisotropy =   195.7539

     42  H    Isotropic =    24.1186   Anisotropy =     3.8434

     43  C    Isotropic =    48.3044   Anisotropy =   191.1615

     44  H    Isotropic =    24.2166   Anisotropy =     6.0602

     45  C    Isotropic =    46.8729   Anisotropy =   190.3034

     46  H    Isotropic =    24.6984   Anisotropy =    11.4801

     47  C    Isotropic =    44.2142   Anisotropy =   175.9537

     48  C    Isotropic =    47.1965   Anisotropy =   188.5614

     49  H    Isotropic =    24.5789   Anisotropy =    11.7176

     50  C    Isotropic =    48.6918   Anisotropy =   189.8476

     51  H    Isotropic =    24.2640   Anisotropy =     6.2909

     52  C    Isotropic =    44.7694   Anisotropy =   198.3713

     53  H    Isotropic =    23.9512   Anisotropy =     3.6212

     54  C    Isotropic =    48.4353   Anisotropy =   189.3270

     55  H    Isotropic =    23.9680   Anisotropy =     6.8909

     56  C    Isotropic =    43.9016   Anisotropy =   179.7377

     57  H    Isotropic =    23.4520   Anisotropy =    10.1904

     58  O    Isotropic =    66.3248   Anisotropy =   151.6005

     59  O    Isotropic =   -91.9212   Anisotropy =   607.1474

     60  Rh   Isotropic =  -300.6760   Anisotropy =   334.1110

     61  C    Isotropic =    80.0859   Anisotropy =   120.7096

     62  C    Isotropic =    71.6545   Anisotropy =   125.4213

     63  C    Isotropic =    78.4637   Anisotropy =   121.8367

     64  C    Isotropic =    73.7985   Anisotropy =   121.2084

     65  C    Isotropic =   153.9571   Anisotropy =    25.0901

     66  H    Isotropic =    26.9033   Anisotropy =     5.9049

     67  H    Isotropic =    26.8209   Anisotropy =     4.8850

     68  C    Isotropic =   148.2663   Anisotropy =    29.3063

     69  C    Isotropic =   153.9429   Anisotropy =    24.9516

     70  H    Isotropic =    26.8151   Anisotropy =     6.0419

     71  C    Isotropic =   148.0307   Anisotropy =    28.9052

     72  H    Isotropic =    26.7391   Anisotropy =     4.1330

     73  H    Isotropic =    29.8541   Anisotropy =    11.4271

     74  H    Isotropic =    29.7901   Anisotropy =     9.9307

     75  H    Isotropic =    29.2458   Anisotropy =    12.5733

     76  H    Isotropic =    29.1773   Anisotropy =     7.0956

     77  H    Isotropic =    29.7599   Anisotropy =     9.8357

     78  H    Isotropic =    29.7860   Anisotropy =    11.5840

     79  H    Isotropic =    29.3545   Anisotropy =     7.0707

     80  H    Isotropic =    29.2403   Anisotropy =    12.6918

     81  C    Isotropic =   159.2611   Anisotropy =    41.0210

     82  H    Isotropic =    31.0341   Anisotropy =     6.5425

     83  H    Isotropic =    29.6820   Anisotropy =     5.0775

     84  H    Isotropic =    30.9024   Anisotropy =    10.0249

     85  C    Isotropic =   158.5639   Anisotropy =    40.3194

     86  H    Isotropic =    31.0142   Anisotropy =     5.6378

     87  H    Isotropic =    30.8636   Anisotropy =     9.7974

     88  H    Isotropic =    29.5728   Anisotropy =     5.7964

 The electronic state is 1-A.
 Alpha  occ. eigenvalues --  -77.23615 -77.23480 -19.25265 -19.20394 -10.39463
 Alpha  occ. eigenvalues --  -10.32577 -10.30856 -10.29666 -10.29521 -10.29268
 Alpha  occ. eigenvalues --  -10.29140 -10.29100 -10.28803 -10.28710 -10.28547
 Alpha  occ. eigenvalues --  -10.28531 -10.28372 -10.28351 -10.28209 -10.28147
 Alpha  occ. eigenvalues --  -10.28016 -10.28000 -10.27779 -10.27743 -10.27666
 Alpha  occ. eigenvalues --  -10.27644 -10.27479 -10.27449 -10.27366 -10.27333
 Alpha  occ. eigenvalues --  -10.27320 -10.27294 -10.27257 -10.27228 -10.27192
 Alpha  occ. eigenvalues --  -10.27060 -10.27020 -10.26982 -10.26861 -10.26775
 Alpha  occ. eigenvalues --  -10.23797 -10.23775 -10.23687  -6.69571  -6.69439
 Alpha  occ. eigenvalues --   -4.85850  -4.85802  -4.85718  -4.85664  -4.85471
 Alpha  occ. eigenvalues --   -4.85345  -3.31214  -2.08112  -2.07456  -2.04675
 Alpha  occ. eigenvalues --   -1.19135  -1.11066  -0.96780  -0.96545  -0.95904
 Alpha  occ. eigenvalues --   -0.95664  -0.94142  -0.91570  -0.89640  -0.88872
 Alpha  occ. eigenvalues --   -0.87733  -0.87136  -0.86286  -0.85384  -0.85163
 Alpha  occ. eigenvalues --   -0.85058  -0.84702  -0.84677  -0.84513  -0.80571
 Alpha  occ. eigenvalues --   -0.79974  -0.77542  -0.77395  -0.77338  -0.75495
 Alpha  occ. eigenvalues --   -0.73094  -0.71288  -0.71088  -0.70915  -0.70543
 Alpha  occ. eigenvalues --   -0.70301  -0.70091  -0.69999  -0.69694  -0.66872
 Alpha  occ. eigenvalues --   -0.65735  -0.65546  -0.62546  -0.62190  -0.61953
 Alpha  occ. eigenvalues --   -0.61027  -0.60777  -0.60338  -0.59689  -0.58948
 Alpha  occ. eigenvalues --   -0.57841  -0.56851  -0.56723  -0.56268  -0.56056
 Alpha  occ. eigenvalues --   -0.55976  -0.55919  -0.55710  -0.55323  -0.55228
 Alpha  occ. eigenvalues --   -0.55027  -0.54422  -0.53594  -0.53371  -0.53103
 Alpha  occ. eigenvalues --   -0.52857  -0.52736  -0.52520  -0.52414  -0.52284
 Alpha  occ. eigenvalues --   -0.52211  -0.51824  -0.51664  -0.51156  -0.50344
 Alpha  occ. eigenvalues --   -0.49794  -0.48648  -0.48435  -0.47967  -0.47861
 Alpha  occ. eigenvalues --   -0.47680  -0.47351  -0.47165  -0.46945  -0.46797
 Alpha  occ. eigenvalues --   -0.46160  -0.45790  -0.45728  -0.45644  -0.45119
 Alpha  occ. eigenvalues --   -0.44892  -0.44807  -0.44712  -0.44426  -0.44120
 Alpha  occ. eigenvalues --   -0.43544  -0.43262  -0.43134  -0.43102  -0.42823
 Alpha  occ. eigenvalues --   -0.42413  -0.42265  -0.41527  -0.41097  -0.39071
 Alpha  occ. eigenvalues --   -0.37919  -0.37327  -0.36941  -0.36709  -0.36310
 Alpha  occ. eigenvalues --   -0.36078  -0.35770  -0.35567  -0.35416  -0.35196
 Alpha  occ. eigenvalues --   -0.34841  -0.34201  -0.33847  -0.33381  -0.30381
 Alpha virt. eigenvalues --   -0.16178  -0.14553  -0.13631  -0.13072  -0.12478
 Alpha virt. eigenvalues --   -0.12267  -0.11507  -0.10789  -0.10499  -0.10061
 Alpha virt. eigenvalues --   -0.08981  -0.08778  -0.07293  -0.06209  -0.05935

 Mulliken charges:
               1
     1  P    0.448541
     2  P    0.418050
     3  C   -0.352916
     4  C   -0.029760
     5  H    0.183516
     6  C   -0.097626
     7  H    0.132565
     8  C   -0.100633
     9  H    0.138521
    10  C   -0.073866
    11  H    0.136752
    12  C   -0.061835
    13  H    0.158560
    14  C   -0.160049
    15  C   -0.097039
    16  H    0.152734
    17  C   -0.087775
    18  H    0.132291
    19  C   -0.093981
    20  H    0.136406
    21  C   -0.126642
    22  H    0.133262
    23  C   -0.060079
    24  H    0.161257
    25  C   -0.590494
    26  H    0.259372
    27  C   -0.197098
    28  H    0.195033
    29  H    0.193833
    30  C    0.245947
    31  C    0.106732
    32  C   -0.315046
    33  H    0.127861
    34  H    0.131589
    35  H    0.131312
    36  C   -0.104762
    37  C   -0.081793
    38  H    0.168402
    39  C   -0.123524
    40  H    0.131414
    41  C   -0.098374
    42  H    0.137746
    43  C   -0.084879
    44  H    0.135715
    45  C   -0.145668
    46  H    0.165980
    47  C   -0.216637
    48  C   -0.081735
    49  H    0.155597
    50  C   -0.091130
    51  H    0.134116
    52  C   -0.088615
    53  H    0.138463
    54  C   -0.099742
    55  H    0.130319
    56  C   -0.077558
    57  H    0.178915
    58  O   -0.201139
    59  O   -0.338195
    60  Rh  -0.663847
    61  C   -0.045420
    62  C   -0.091913
    63  C   -0.051740
    64  C   -0.092051
    65  C   -0.350509
    66  H    0.187844
    67  H    0.213984
    68  C   -0.224986
    69  C   -0.344913
    70  H    0.200780
    71  C   -0.227191
    72  H    0.200777
    73  H    0.168064
    74  H    0.167169
    75  H    0.171505
    76  H    0.132815
    77  H    0.166616
    78  H    0.167686
    79  H    0.133139
    80  H    0.171711
    81  C   -0.385643
    82  H    0.127740
    83  H    0.163146
    84  H    0.142069
    85  C   -0.387997
    86  H    0.124527
    87  H    0.141950
    88  H    0.162472
 Sum of Mulliken charges =   1.00000

 Dipole moment (field-independent basis, Debye):
    X=              1.2648    Y=              0.1319    Z=              1.3326  Tot=              1.8420
 Quadrupole moment (field-independent basis, Debye-Ang):
   XX=           -221.8396   YY=           -234.5980   ZZ=           -242.6310
   XY=              0.9467   XZ=             -2.5340   YZ=             -1.5044

 Summary of Natural Population Analysis:

                                       Natural Population
                Natural  -----------------------------------------------
    Atom  No    Charge         Core      Valence    Rydberg      Total
 -----------------------------------------------------------------------
      P    1    1.13107      9.99637     3.82093    0.05162    13.86893
      P    2    1.13704      9.99636     3.81432    0.05228    13.86296
      C    3   -0.35445      1.99899     4.33111    0.02435     6.35445
      C    4   -0.18724      1.99909     4.17253    0.01562     6.18724
      H    5    0.22490      0.00000     0.77304    0.00206     0.77510
      C    6   -0.19945      1.99919     4.18563    0.01463     6.19945
      H    7    0.22156      0.00000     0.77721    0.00124     0.77844
      C    8   -0.17526      1.99921     4.16151    0.01454     6.17526
      H    9    0.22309      0.00000     0.77574    0.00117     0.77691
      C   10   -0.19366      1.99920     4.17985    0.01462     6.19366
      H   11    0.22351      0.00000     0.77525    0.00123     0.77649
      C   12   -0.19189      1.99909     4.17689    0.01590     6.19189
      H   13    0.22201      0.00000     0.77602    0.00196     0.77799
      C   14   -0.34509      1.99899     4.32288    0.02322     6.34509
      C   15   -0.20217      1.99909     4.18785    0.01523     6.20217
      H   16    0.21600      0.00000     0.78223    0.00177     0.78400
      C   17   -0.19299      1.99919     4.17909    0.01471     6.19299
      H   18    0.22164      0.00000     0.77712    0.00124     0.77836
      C   19   -0.18254      1.99920     4.16869    0.01464     6.18254
      H   20    0.22178      0.00000     0.77704    0.00118     0.77822
      C   21   -0.18840      1.99920     4.17461    0.01459     6.18840
      H   22    0.22206      0.00000     0.77672    0.00122     0.77794
      C   23   -0.19840      1.99909     4.18400    0.01531     6.19840
      H   24    0.23462      0.00000     0.76335    0.00203     0.76538
      C   25   -0.75754      1.99937     4.73319    0.02498     6.75754
      H   26    0.29050      0.00000     0.70665    0.00285     0.70950
      C   27   -0.52010      1.99923     4.50458    0.01629     6.52010
      H   28    0.24546      0.00000     0.75219    0.00235     0.75454
      H   29    0.24804      0.00000     0.74943    0.00252     0.75196
      C   30    0.77422      1.99944     3.18278    0.04356     5.22578
      C   31    0.26953      1.99926     3.71523    0.01598     5.73047
      C   32   -0.60313      1.99936     4.59656    0.00722     6.60313
      H   33    0.21340      0.00000     0.78522    0.00138     0.78660
      H   34    0.21646      0.00000     0.78237    0.00117     0.78354
      H   35    0.21499      0.00000     0.78365    0.00136     0.78501
      C   36   -0.34588      1.99899     4.32331    0.02358     6.34588
      C   37   -0.19814      1.99909     4.18401    0.01505     6.19814
      H   38    0.21573      0.00000     0.78217    0.00209     0.78427
      C   39   -0.19156      1.99920     4.17775    0.01461     6.19156
      H   40    0.22122      0.00000     0.77754    0.00125     0.77878
      C   41   -0.18206      1.99920     4.16821    0.01465     6.18206
      H   42    0.22278      0.00000     0.77605    0.00117     0.77722
      C   43   -0.19089      1.99920     4.17702    0.01467     6.19089
      H   44    0.22298      0.00000     0.77580    0.00122     0.77702
      C   45   -0.20053      1.99910     4.18620    0.01523     6.20053
      H   46    0.22078      0.00000     0.77743    0.00179     0.77922
      C   47   -0.34812      1.99899     4.32563    0.02350     6.34812
      C   48   -0.19092      1.99909     4.17606    0.01576     6.19092
      H   49    0.21934      0.00000     0.77875    0.00191     0.78066
      C   50   -0.19066      1.99920     4.17690    0.01456     6.19066
      H   51    0.22239      0.00000     0.77638    0.00124     0.77761
      C   52   -0.17421      1.99921     4.16050    0.01450     6.17421
      H   53    0.22274      0.00000     0.77608    0.00118     0.77726
      C   54   -0.19307      1.99920     4.17933    0.01454     6.19307
      H   55    0.22129      0.00000     0.77748    0.00123     0.77871
      C   56   -0.18908      1.99910     4.17467    0.01531     6.18908
      H   57    0.22037      0.00000     0.77772    0.00191     0.77963
      O   58   -0.49840      1.99973     6.48401    0.01466     8.49840
      O   59   -0.60286      1.99974     6.59117    0.01195     8.60286
     Rh   60   -0.40027     35.98575     9.38611    0.02841    45.40027
      C   61   -0.17951      1.99907     4.16088    0.01956     6.17951
      C   62   -0.15618      1.99907     4.13739    0.01972     6.15618
      C   63   -0.17752      1.99906     4.15891    0.01955     6.17752
      C   64   -0.15720      1.99908     4.13838    0.01975     6.15720
      C   65   -0.42360      1.99936     4.41240    0.01183     6.42360
      H   66    0.22473      0.00000     0.77331    0.00196     0.77527
      H   67    0.23304      0.00000     0.76476    0.00220     0.76696
      C   68   -0.41857      1.99935     4.40663    0.01259     6.41857
      C   69   -0.42371      1.99936     4.41253    0.01181     6.42371
      H   70    0.22644      0.00000     0.77140    0.00217     0.77356
      C   71   -0.41832      1.99935     4.40636    0.01261     6.41832
      H   72    0.22875      0.00000     0.76911    0.00214     0.77125
      H   73    0.22765      0.00000     0.77088    0.00148     0.77235
      H   74    0.21487      0.00000     0.78315    0.00198     0.78513
      H   75    0.23372      0.00000     0.76438    0.00190     0.76628
      H   76    0.21735      0.00000     0.78113    0.00153     0.78265
      H   77    0.21452      0.00000     0.78349    0.00199     0.78548
      H   78    0.22773      0.00000     0.77076    0.00151     0.77227
      H   79    0.21553      0.00000     0.78292    0.00155     0.78447
      H   80    0.23380      0.00000     0.76429    0.00191     0.76620
      C   81   -0.62900      1.99934     4.62299    0.00666     6.62900
      H   82    0.21110      0.00000     0.78747    0.00143     0.78890
      H   83    0.23041      0.00000     0.76817    0.00142     0.76959
      H   84    0.22026      0.00000     0.77860    0.00113     0.77974
      C   85   -0.62756      1.99934     4.62153    0.00669     6.62756
      H   86    0.20948      0.00000     0.78907    0.00145     0.79052
      H   87    0.21994      0.00000     0.77891    0.00115     0.78006
      H   88    0.22930      0.00000     0.76927    0.00143     0.77070
 =======================================================================
   * Total *    1.00000    137.94609   229.18085    0.87306   368.00000

 Normal termination of Gaussian 16 at Wed Jan 22 13:52:01 2025.
