 Gaussian 16, Revision B.01,
 Gaussian 16:  ES64L-G16RevB.01 20-Dec-2017

 ------------------------------------------
 # nmr=giao b3lyp/genecp pop=nbo scfcyc=200
 ------------------------------------------

 ---------
 MS-45_SPE
 ---------
 Symbolic Z-matrix:
 Charge =  1 Multiplicity = 1

                         Standard orientation:
 ---------------------------------------------------------------------
 Center     Atomic      Atomic             Coordinates (Angstroms)
 Number     Number       Type             X           Y           Z
 ---------------------------------------------------------------------
      1         15           0        0.121410   -1.279630    0.150190
      2         15           0        0.885370    1.423060    0.215290
      3          6           0        0.346240   -2.127350    1.766790
      4          6           0        1.645520   -2.356490    2.231560
      5          1           0        2.490690   -2.026530    1.640950
      6          6           0        1.854650   -2.995050    3.449390
      7          1           0        2.864270   -3.170820    3.798930
      8          6           0        0.768180   -3.408190    4.212810
      9          1           0        0.929820   -3.908590    5.159460
     10          6           0       -0.528110   -3.179780    3.758360
     11          1           0       -1.376150   -3.499010    4.351150
     12          6           0       -0.745550   -2.543900    2.541140
     13          1           0       -1.759880   -2.371150    2.204340
     14          6           0       -1.034780   -2.318250   -0.839960
     15          6           0       -1.191800   -3.680900   -0.572870
     16          1           0       -0.697180   -4.134180    0.275220
     17          6           0       -1.999040   -4.466200   -1.390030
     18          1           0       -2.119500   -5.518939   -1.167580
     19          6           0       -2.652820   -3.903709   -2.479670
     20          1           0       -3.285570   -4.515879   -3.109580
     21          6           0       -2.488530   -2.550429   -2.760550
     22          1           0       -2.991530   -2.106719   -3.610470
     23          6           0       -1.677270   -1.763980   -1.952870
     24          1           0       -1.548410   -0.717600   -2.202570
     25          6           0       -0.698620    0.402420    0.455320
     26          1           0       -1.202010    0.616480   -0.491750
     27          6           0       -1.679690    0.685260    1.601880
     28          1           0       -1.348020    0.227530    2.530820
     29          1           0       -1.743450    1.763950    1.752460
     30          6           0       -3.071700    0.158451    1.296540
     31          6           0        1.527490    2.055960    1.820070
     32          6           0        1.393950    1.328650    3.006740
     33          1           0        0.843080    0.398980    3.027600
     34          6           0        1.984110    1.784140    4.180680
     35          1           0        1.862850    1.215780    5.094220
     36          6           0        2.727390    2.959400    4.182500
     37          1           0        3.185280    3.311960    5.097930
     38          6           0        2.882590    3.678430    3.001780
     39          1           0        3.463790    4.591970    2.993090
     40          6           0        2.290240    3.230910    1.826650
     41          1           0        2.417010    3.807830    0.919490
     42          6           0        0.307280    2.903460   -0.717390
     43          6           0       -0.291690    3.994400   -0.076840
     44          1           0       -0.353310    4.031320    1.002970
     45          6           0       -0.802319    5.048780   -0.824610
     46          1           0       -1.262609    5.889250   -0.320570
     47          6           0       -0.723279    5.026110   -2.214180
     48          1           0       -1.118939    5.851470   -2.792490
     49          6           0       -0.134960    3.942920   -2.857820
     50          1           0       -0.070350    3.922100   -3.938520
     51          6           0        0.377890    2.885340   -2.113680
     52          1           0        0.831210    2.040780   -2.617620
     53          8           0       -3.777270    1.081221    0.597480
     54          8           0       -3.478980   -0.927929    1.611110
     55         45           0        2.053550   -0.340500   -0.817100
     56          6           0        3.243830   -2.226750   -1.325760
     57          6           0        2.442510   -1.892870   -2.397650
     58          6           0        3.577940    0.792230   -2.112180
     59          6           0        4.134740    0.527440   -0.880120
     60          6           0        4.732040   -1.952790   -1.212270
     61          1           0        2.853670   -2.973220   -0.642530
     62          1           0        1.494800   -2.413910   -2.487700
     63          6           0        2.856860   -1.138080   -3.636640
     64          6           0        3.848050    0.019840   -3.389920
     65          1           0        3.132400    1.771590   -2.243200
     66          6           0        5.065440   -0.607520   -0.530870
     67          1           0        4.101750    1.321220   -0.140310
     68          1           0        5.188700   -2.755170   -0.630450
     69          1           0        5.191050   -2.002970   -2.199370
     70          1           0        3.280620   -1.839290   -4.366650
     71          1           0        1.950720   -0.741570   -4.100050
     72          1           0        4.872580   -0.351360   -3.384410
     73          1           0        3.786490    0.711100   -4.232200
     74          1           0        5.035740   -0.737200    0.553260
     75          1           0        6.097650   -0.319140   -0.766310
     76          6           0       -5.098700    0.817561    0.182940
     77          6           0       -6.086740    0.465601    1.090350
     78          6           0       -5.378870    1.020141   -1.159210
     79          6           0       -7.387490    0.298791    0.626740
     80          1           0       -5.848740    0.318111    2.134090
     81          6           0       -6.684780    0.853231   -1.608990
     82          1           0       -4.585410    1.314741   -1.833600
     83          6           0       -7.689550    0.490371   -0.718180
     84          1           0       -8.167710    0.021571    1.324140
     85          1           0       -6.915410    1.012731   -2.654710
     86          1           0       -8.705420    0.361841   -1.068960
 ---------------------------------------------------------------------

 SCF Done:  E(RB3LYP) =  -2530.68198760     A.U. after   18 cycles

      1  P    Isotropic =   287.8076   Anisotropy =    68.7181

      2  P    Isotropic =   285.9691   Anisotropy =    94.7109

      3  C    Isotropic =    52.3264   Anisotropy =   162.9607

      4  C    Isotropic =    39.2644   Anisotropy =   181.2703

      5  H    Isotropic =    23.1233   Anisotropy =     9.9018

      6  C    Isotropic =    49.1837   Anisotropy =   187.8838

      7  H    Isotropic =    23.9472   Anisotropy =     6.9352

      8  C    Isotropic =    43.8042   Anisotropy =   199.9984

      9  H    Isotropic =    23.7129   Anisotropy =     3.6202

     10  C    Isotropic =    48.0620   Anisotropy =   190.7786

     11  H    Isotropic =    23.7870   Anisotropy =     6.3488

     12  C    Isotropic =    39.8655   Anisotropy =   202.4342

     13  H    Isotropic =    22.7537   Anisotropy =     9.5112

     14  C    Isotropic =    45.8241   Anisotropy =   168.7690

     15  C    Isotropic =    47.3007   Anisotropy =   190.7808

     16  H    Isotropic =    24.9035   Anisotropy =    12.4464

     17  C    Isotropic =    48.7001   Anisotropy =   190.2669

     18  H    Isotropic =    24.4574   Anisotropy =     6.1654

     19  C    Isotropic =    46.6024   Anisotropy =   195.9840

     20  H    Isotropic =    24.3258   Anisotropy =     3.7897

     21  C    Isotropic =    49.2143   Anisotropy =   190.1480

     22  H    Isotropic =    24.2491   Anisotropy =     6.4797

     23  C    Isotropic =    50.5079   Anisotropy =   187.9330

     24  H    Isotropic =    24.1650   Anisotropy =    10.0003

     25  C    Isotropic =   111.0605   Anisotropy =    45.7812

     26  H    Isotropic =    27.3374   Anisotropy =     3.6097

     27  C    Isotropic =   147.0588   Anisotropy =    33.0839

     28  H    Isotropic =    28.8889   Anisotropy =     2.9534

     29  H    Isotropic =    29.3708   Anisotropy =     4.9165

     30  C    Isotropic =     7.9618   Anisotropy =    92.5507

     31  C    Isotropic =    47.9397   Anisotropy =   162.4203

     32  C    Isotropic =    47.6088   Anisotropy =   186.2398

     33  H    Isotropic =    25.2975   Anisotropy =     7.2138

     34  C    Isotropic =    49.5883   Anisotropy =   188.8741

     35  H    Isotropic =    24.5623   Anisotropy =     8.2572

     36  C    Isotropic =    46.6791   Anisotropy =   196.0159

     37  H    Isotropic =    24.1600   Anisotropy =     4.0464

     38  C    Isotropic =    48.4225   Anisotropy =   190.8263

     39  H    Isotropic =    24.2455   Anisotropy =     6.1328

     40  C    Isotropic =    47.0565   Anisotropy =   189.4887

     41  H    Isotropic =    24.6936   Anisotropy =    11.7493

     42  C    Isotropic =    44.2250   Anisotropy =   176.0946

     43  C    Isotropic =    46.2193   Anisotropy =   189.3579

     44  H    Isotropic =    24.2897   Anisotropy =    11.5118

     45  C    Isotropic =    48.1251   Anisotropy =   190.9602

     46  H    Isotropic =    24.0955   Anisotropy =     6.1551

     47  C    Isotropic =    44.4363   Anisotropy =   199.2152

     48  H    Isotropic =    23.8173   Anisotropy =     3.6061

     49  C    Isotropic =    48.3745   Anisotropy =   189.1454

     50  H    Isotropic =    23.8154   Anisotropy =     6.8159

     51  C    Isotropic =    44.0149   Anisotropy =   178.7392

     52  H    Isotropic =    23.2381   Anisotropy =    10.1923

     53  O    Isotropic =    68.4704   Anisotropy =   148.2341

     54  O    Isotropic =  -109.6407   Anisotropy =   606.8126

     55  Rh   Isotropic =  -302.2916   Anisotropy =   332.8831

     56  C    Isotropic =    79.9897   Anisotropy =   119.8820

     57  C    Isotropic =    72.1855   Anisotropy =   123.7161

     58  C    Isotropic =    78.0623   Anisotropy =   122.2651

     59  C    Isotropic =    73.2757   Anisotropy =   122.0186

     60  C    Isotropic =   154.0884   Anisotropy =    24.8280

     61  H    Isotropic =    27.0803   Anisotropy =     6.0619

     62  H    Isotropic =    27.0164   Anisotropy =     3.7656

     63  C    Isotropic =   147.7737   Anisotropy =    29.2883

     64  C    Isotropic =   153.9812   Anisotropy =    24.9019

     65  H    Isotropic =    26.7298   Anisotropy =     6.0710

     66  C    Isotropic =   147.9740   Anisotropy =    28.6355

     67  H    Isotropic =    26.6482   Anisotropy =     4.0552

     68  H    Isotropic =    29.8523   Anisotropy =    11.5865

     69  H    Isotropic =    29.7981   Anisotropy =     9.9272

     70  H    Isotropic =    29.2252   Anisotropy =    12.5259

     71  H    Isotropic =    29.0623   Anisotropy =     7.3802

     72  H    Isotropic =    29.7271   Anisotropy =     9.8254

     73  H    Isotropic =    29.7329   Anisotropy =    11.5723

     74  H    Isotropic =    29.3014   Anisotropy =     7.3528

     75  H    Isotropic =    29.2159   Anisotropy =    12.7576

     76  C    Isotropic =    26.4881   Anisotropy =   114.1198

     77  C    Isotropic =    57.5623   Anisotropy =   166.3645

     78  C    Isotropic =    61.4862   Anisotropy =   154.0297

     79  C    Isotropic =    49.5475   Anisotropy =   186.9732

     80  H    Isotropic =    24.8324   Anisotropy =    10.3484

     81  C    Isotropic =    49.8192   Anisotropy =   186.2479

     82  H    Isotropic =    25.2506   Anisotropy =     7.8743

     83  C    Isotropic =    51.6975   Anisotropy =   188.3469

     84  H    Isotropic =    24.4640   Anisotropy =     5.1536

     85  H    Isotropic =    24.4754   Anisotropy =     6.5901

     86  H    Isotropic =    24.5292   Anisotropy =     3.9276

 The electronic state is 1-A.
 Alpha  occ. eigenvalues --  -77.24020 -77.23807 -19.27192 -19.21238 -10.40299
 Alpha  occ. eigenvalues --  -10.31935 -10.31711 -10.29863 -10.29759 -10.29664
 Alpha  occ. eigenvalues --  -10.29507 -10.29384 -10.29092 -10.29010 -10.28810
 Alpha  occ. eigenvalues --  -10.28725 -10.28531 -10.28444 -10.28327 -10.28315
 Alpha  occ. eigenvalues --  -10.28282 -10.28109 -10.27800 -10.27781 -10.27746
 Alpha  occ. eigenvalues --  -10.27723 -10.27670 -10.27658 -10.27566 -10.27543
 Alpha  occ. eigenvalues --  -10.27516 -10.27512 -10.27494 -10.27461 -10.27340
 Alpha  occ. eigenvalues --  -10.27303 -10.27267 -10.27233 -10.27062 -10.27003
 Alpha  occ. eigenvalues --  -10.25596 -10.25441 -10.25307 -10.25169 -10.24768
 Alpha  occ. eigenvalues --   -6.69969  -6.69757  -4.86252  -4.86197  -4.86036
 Alpha  occ. eigenvalues --   -4.85978  -4.85866  -4.85668  -3.31513  -2.08403
 Alpha  occ. eigenvalues --   -2.07755  -2.04979  -1.20710  -1.12577  -0.96995
 Alpha  occ. eigenvalues --   -0.96563  -0.96204  -0.95840  -0.94394  -0.94117
 Alpha  occ. eigenvalues --   -0.91777  -0.89129  -0.87988  -0.87402  -0.87097
 Alpha  occ. eigenvalues --   -0.85507  -0.85364  -0.85129  -0.85030  -0.84982
 Alpha  occ. eigenvalues --   -0.84609  -0.83808  -0.83073  -0.80558  -0.80165
 Alpha  occ. eigenvalues --   -0.77802  -0.75740  -0.73701  -0.72039  -0.71416
 Alpha  occ. eigenvalues --   -0.71127  -0.70935  -0.70599  -0.70543  -0.70354
 Alpha  occ. eigenvalues --   -0.70011  -0.69439  -0.67114  -0.66337  -0.65788
 Alpha  occ. eigenvalues --   -0.65090  -0.62754  -0.62385  -0.62048  -0.61226
 Alpha  occ. eigenvalues --   -0.60679  -0.60093  -0.59945  -0.58944  -0.57724
 Alpha  occ. eigenvalues --   -0.57353  -0.57001  -0.56367  -0.56256  -0.56198
 Alpha  occ. eigenvalues --   -0.55998  -0.55884  -0.55638  -0.55558  -0.55136
 Alpha  occ. eigenvalues --   -0.54938  -0.54198  -0.53722  -0.53631  -0.52961
 Alpha  occ. eigenvalues --   -0.52666  -0.52661  -0.52635  -0.52466  -0.52411
 Alpha  occ. eigenvalues --   -0.52294  -0.51493  -0.51170  -0.50983  -0.50381
 Alpha  occ. eigenvalues --   -0.49785  -0.48811  -0.48498  -0.48289  -0.47914
 Alpha  occ. eigenvalues --   -0.47822  -0.47711  -0.47254  -0.47073  -0.46113
 Alpha  occ. eigenvalues --   -0.45999  -0.45941  -0.45277  -0.45113  -0.45009
 Alpha  occ. eigenvalues --   -0.44888  -0.44709  -0.44193  -0.43892  -0.43408
 Alpha  occ. eigenvalues --   -0.43331  -0.43191  -0.43105  -0.42919  -0.42725
 Alpha  occ. eigenvalues --   -0.41349  -0.40921  -0.38079  -0.38035  -0.37409
 Alpha  occ. eigenvalues --   -0.36862  -0.36428  -0.36109  -0.36054  -0.35741
 Alpha  occ. eigenvalues --   -0.35678  -0.35425  -0.35156  -0.34597  -0.34021
 Alpha  occ. eigenvalues --   -0.33604  -0.33442  -0.32613  -0.30713
 Alpha virt. eigenvalues --   -0.16400  -0.14881  -0.14062  -0.13314  -0.12682
 Alpha virt. eigenvalues --   -0.12279  -0.11695  -0.11031  -0.10800  -0.10461
 Alpha virt. eigenvalues --   -0.10197  -0.09269  -0.08911  -0.07932  -0.07541

 Mulliken charges:
               1
     1  P    0.404389
     2  P    0.437058
     3  C   -0.362868
     4  C   -0.003345
     5  H    0.170224
     6  C   -0.121821
     7  H    0.131129
     8  C   -0.083334
     9  H    0.137801
    10  C   -0.110517
    11  H    0.139357
    12  C   -0.065198
    13  H    0.220687
    14  C   -0.141459
    15  C   -0.064523
    16  H    0.163512
    17  C   -0.099973
    18  H    0.133782
    19  C   -0.091196
    20  H    0.137189
    21  C   -0.101501
    22  H    0.126226
    23  C   -0.065369
    24  H    0.131767
    25  C   -0.625034
    26  H    0.233065
    27  C   -0.179656
    28  H    0.172853
    29  H    0.166146
    30  C    0.256649
    31  C   -0.120511
    32  C   -0.067057
    33  H    0.169738
    34  C   -0.138238
    35  H    0.132096
    36  C   -0.088347
    37  H    0.138496
    38  C   -0.095637
    39  H    0.135924
    40  C   -0.113810
    41  H    0.164717
    42  C   -0.238670
    43  C   -0.083805
    44  H    0.161783
    45  C   -0.090686
    46  H    0.137166
    47  C   -0.087851
    48  H    0.139902
    49  C   -0.108640
    50  H    0.130632
    51  C   -0.080194
    52  H    0.182795
    53  O   -0.189491
    54  O   -0.297869
    55  Rh  -0.602623
    56  C   -0.043178
    57  C   -0.090535
    58  C   -0.050227
    59  C   -0.099993
    60  C   -0.357781
    61  H    0.196314
    62  H    0.210862
    63  C   -0.230245
    64  C   -0.344762
    65  H    0.198519
    66  C   -0.214353
    67  H    0.195035
    68  H    0.168679
    69  H    0.166504
    70  H    0.172375
    71  H    0.128879
    72  H    0.166838
    73  H    0.167258
    74  H    0.133224
    75  H    0.173288
    76  C    0.132086
    77  C   -0.099263
    78  C   -0.160077
    79  C   -0.103729
    80  H    0.145745
    81  C   -0.101754
    82  H    0.125499
    83  C   -0.107667
    84  H    0.130009
    85  H    0.124496
    86  H    0.132092
 Sum of Mulliken charges =   1.00000

 Dipole moment (field-independent basis, Debye):
    X=              3.4228    Y=              0.8167    Z=             -0.8231  Tot=              3.6139
 Quadrupole moment (field-independent basis, Debye-Ang):
   XX=           -233.8300   YY=           -247.0148   ZZ=           -241.5104
   XY=             -0.3110   XZ=              8.2409   YZ=             -3.1909

 Summary of Natural Population Analysis:

                                       Natural Population
                Natural  -----------------------------------------------
    Atom  No    Charge         Core      Valence    Rydberg      Total
 -----------------------------------------------------------------------
      P    1    1.13518      9.99635     3.81657    0.05189    13.86482
      P    2    1.13181      9.99638     3.82034    0.05147    13.86819
      C    3   -0.36739      1.99898     4.34441    0.02400     6.36739
      C    4   -0.18166      1.99909     4.16695    0.01562     6.18166
      H    5    0.22251      0.00000     0.77532    0.00217     0.77749
      C    6   -0.20313      1.99919     4.18930    0.01464     6.20313
      H    7    0.22128      0.00000     0.77747    0.00124     0.77872
      C    8   -0.17242      1.99921     4.15872    0.01449     6.17242
      H    9    0.22271      0.00000     0.77612    0.00117     0.77729
      C   10   -0.19545      1.99919     4.18172    0.01454     6.19545
      H   11    0.22526      0.00000     0.77352    0.00123     0.77474
      C   12   -0.19846      1.99909     4.18335    0.01602     6.19846
      H   13    0.25088      0.00000     0.74699    0.00213     0.74912
      C   14   -0.34250      1.99898     4.31958    0.02394     6.34250
      C   15   -0.19033      1.99909     4.17621    0.01503     6.19033
      H   16    0.22322      0.00000     0.77501    0.00177     0.77678
      C   17   -0.18621      1.99920     4.17240    0.01461     6.18621
      H   18    0.22271      0.00000     0.77607    0.00122     0.77729
      C   19   -0.17865      1.99920     4.16481    0.01464     6.17865
      H   20    0.22257      0.00000     0.77626    0.00118     0.77743
      C   21   -0.18883      1.99920     4.17491    0.01472     6.18883
      H   22    0.22004      0.00000     0.77870    0.00126     0.77996
      C   23   -0.19697      1.99909     4.18291    0.01498     6.19697
      H   24    0.20553      0.00000     0.79244    0.00203     0.79447
      C   25   -0.72989      1.99936     4.70918    0.02135     6.72989
      H   26    0.26233      0.00000     0.73541    0.00226     0.73767
      C   27   -0.50932      1.99923     4.49490    0.01519     6.50932
      H   28    0.23745      0.00000     0.76008    0.00247     0.76255
      H   29    0.24312      0.00000     0.75420    0.00268     0.75688
      C   30    0.76205      1.99941     3.19497    0.04357     5.23795
      C   31   -0.34738      1.99899     4.32488    0.02351     6.34738
      C   32   -0.19534      1.99909     4.18118    0.01507     6.19534
      H   33    0.21567      0.00000     0.78216    0.00217     0.78433
      C   34   -0.19014      1.99920     4.17638    0.01456     6.19014
      H   35    0.22189      0.00000     0.77686    0.00125     0.77811
      C   36   -0.18063      1.99920     4.16681    0.01461     6.18063
      H   37    0.22316      0.00000     0.77568    0.00117     0.77684
      C   38   -0.19063      1.99920     4.17676    0.01468     6.19063
      H   39    0.22319      0.00000     0.77558    0.00122     0.77681
      C   40   -0.19958      1.99910     4.18532    0.01517     6.19958
      H   41    0.22094      0.00000     0.77730    0.00176     0.77906
      C   42   -0.34857      1.99899     4.32595    0.02362     6.34857
      C   43   -0.19062      1.99910     4.17566    0.01586     6.19062
      H   44    0.22089      0.00000     0.77715    0.00196     0.77911
      C   45   -0.18937      1.99920     4.17560    0.01458     6.18937
      H   46    0.22424      0.00000     0.77454    0.00122     0.77576
      C   47   -0.17430      1.99921     4.16058    0.01452     6.17430
      H   48    0.22360      0.00000     0.77523    0.00117     0.77640
      C   49   -0.19571      1.99920     4.18191    0.01461     6.19571
      H   50    0.22126      0.00000     0.77751    0.00123     0.77874
      C   51   -0.19305      1.99910     4.17847    0.01548     6.19305
      H   52    0.21977      0.00000     0.77823    0.00200     0.78023
      O   53   -0.47697      1.99973     6.46287    0.01437     8.47697
      O   54   -0.55363      1.99974     6.54181    0.01209     8.55363
     Rh   55   -0.40431     35.98578     9.38945    0.02908    45.40431
      C   56   -0.18217      1.99906     4.16360    0.01951     6.18217
      C   57   -0.15208      1.99908     4.13337    0.01964     6.15208
      C   58   -0.17825      1.99906     4.15953    0.01966     6.17825
      C   59   -0.15590      1.99908     4.13705    0.01977     6.15590
      C   60   -0.42380      1.99936     4.41261    0.01184     6.42380
      H   61    0.22651      0.00000     0.77153    0.00196     0.77349
      H   62    0.23340      0.00000     0.76464    0.00196     0.76660
      C   63   -0.41804      1.99935     4.40607    0.01262     6.41804
      C   64   -0.42431      1.99936     4.41307    0.01188     6.42431
      H   65    0.22545      0.00000     0.77240    0.00216     0.77455
      C   66   -0.41886      1.99935     4.40689    0.01262     6.41886
      H   67    0.22951      0.00000     0.76837    0.00213     0.77049
      H   68    0.22815      0.00000     0.77037    0.00149     0.77185
      H   69    0.21525      0.00000     0.78277    0.00199     0.78475
      H   70    0.23450      0.00000     0.76359    0.00190     0.76550
      H   71    0.21545      0.00000     0.78299    0.00157     0.78455
      H   72    0.21541      0.00000     0.78259    0.00200     0.78459
      H   73    0.22739      0.00000     0.77110    0.00151     0.77261
      H   74    0.21614      0.00000     0.78229    0.00157     0.78386
      H   75    0.23480      0.00000     0.76330    0.00190     0.76520
      C   76    0.24560      1.99863     3.73503    0.02075     5.75440
      C   77   -0.22843      1.99904     4.21523    0.01417     6.22843
      C   78   -0.23571      1.99905     4.22205    0.01461     6.23571
      C   79   -0.18483      1.99922     4.17078    0.01483     6.18483
      H   80    0.22581      0.00000     0.77268    0.00150     0.77419
      C   81   -0.19039      1.99922     4.17635    0.01482     6.19039
      H   82    0.21725      0.00000     0.78133    0.00142     0.78275
      C   83   -0.20385      1.99921     4.18996    0.01468     6.20385
      H   84    0.21909      0.00000     0.77971    0.00120     0.78091
      H   85    0.21629      0.00000     0.78250    0.00121     0.78371
      H   86    0.21883      0.00000     0.77997    0.00120     0.78117
 =======================================================================
   * Total *    1.00000    141.94314   233.13635    0.92051   376.00000

 Normal termination of Gaussian 16 at Wed Jan 22 17:45:56 2025.
