 Gaussian 16, Revision B.01,
 Gaussian 16:  ES64L-G16RevB.01 20-Dec-2017

 ------------------------------------------
 # nmr=giao b3lyp/genecp pop=nbo scfcyc=200
 ------------------------------------------

 ---------
 MS-41_SPE
 ---------
 Symbolic Z-matrix:
 Charge =  1 Multiplicity = 1

                         Standard orientation:
 ---------------------------------------------------------------------
 Center     Atomic      Atomic             Coordinates (Angstroms)
 Number     Number       Type             X           Y           Z
 ---------------------------------------------------------------------
      1         15           0       -0.430537    1.398931    0.013021
      2         15           0        0.301578   -1.314100    0.134221
      3          6           0        1.166651    0.381089   -0.015909
      4          6           0       -0.178255    2.828431   -1.121939
      5          6           0       -1.240284    3.730772   -1.265759
      6          6           0       -1.135442    4.808062   -2.135539
      7          6           0        0.027908    4.997121   -2.877019
      8          6           0        1.086347    4.107819   -2.738319
      9          6           0        0.985315    3.025759   -1.867649
     10          6           0       -0.716246    2.159632    1.660891
     11          6           0       -1.633817    1.564303    2.530191
     12          6           0       -1.880056    2.124813    3.779201
     13          6           0       -1.218364    3.286102    4.161941
     14          6           0       -0.308774    3.887661    3.295491
     15          6           0       -0.056134    3.329621    2.050021
     16          6           0        1.281427   -2.420381   -0.967279
     17          6           0        0.947887   -2.477051   -2.324509
     18          6           0        1.702775   -3.249062   -3.201419
     19          6           0        2.792194   -3.973914   -2.728829
     20          6           0        3.130704   -3.919374   -1.379799
     21          6           0        2.382916   -3.144943   -0.500229
     22          6           0        0.414707   -2.057650    1.812511
     23          6           0        0.632098   -1.311470    2.973641
     24          6           0        0.583257   -1.935230    4.217461
     25          6           0        0.307335   -3.293320    4.317831
     26          6           0        0.077974   -4.038400    3.164291
     27          6           0        0.127115   -3.426530    1.918801
     28          1           0        1.404781    0.358728   -1.079939
     29          1           0       -2.145184    3.608344   -0.682289
     30          1           0       -1.961161    5.501694   -2.232419
     31          1           0        0.109559    5.837790   -3.554179
     32          1           0        1.998237    4.254727   -3.303239
     33          1           0        1.831414    2.358878   -1.771399
     34          1           0       -2.153359    0.663244    2.227271
     35          1           0       -2.592297    1.658135    4.448031
     36          1           0       -1.413714    3.726643    5.131621
     37          1           0        0.206638    4.792390    3.592101
     38          1           0        0.652296    3.806790    1.385961
     39          1           0        0.096907   -1.917260   -2.693869
     40          1           0        1.434775   -3.290872   -4.249719
     41          1           0        3.375093   -4.581785   -3.409319
     42          1           0        3.980034   -4.479716   -1.009759
     43          1           0        2.657486   -3.110764    0.545821
     44          1           0        0.858260   -0.256821    2.920471
     45          1           0        0.767438   -1.350301    5.109801
     46          1           0        0.273255   -3.771880    5.288441
     47          1           0       -0.135967   -5.097659    3.232561
     48          1           0       -0.043766   -4.024239    1.031701
     49         45           0       -1.791660   -0.455317   -0.523589
     50          6           0       -2.771713   -2.299995   -1.460239
     51          6           0       -3.077953   -2.256305   -0.116339
     52          6           0       -3.860549    0.514087   -0.617479
     53          6           0       -3.285779    0.548996   -1.870749
     54          6           0       -3.697172   -1.885724   -2.589389
     55          1           0       -1.932224   -2.922206   -1.748829
     56          1           0       -2.472094   -2.860436    0.551431
     57          6           0       -4.349452   -1.735133    0.506701
     58          6           0       -4.923930   -0.466782   -0.160769
     59          1           0       -3.749397    1.398896   -0.000059
     60          6           0       -3.541170   -0.408144   -3.009219
     61          1           0       -2.787367    1.467175   -2.164049
     62          1           0       -3.488693   -2.514264   -3.456809
     63          1           0       -4.729983   -2.095092   -2.311549
     64          1           0       -5.107503   -2.528462    0.508511
     65          1           0       -4.140522   -1.524413    1.557761
     66          1           0       -5.560711   -0.735591   -1.003269
     67          1           0       -5.574030    0.035949    0.557091
     68          1           0       -2.705430   -0.320415   -3.706889
     69          1           0       -4.429010   -0.085403   -3.567449
     70          6           0        3.741622    0.757995    0.164051
     71          6           0        3.998331    0.217994   -1.102909
     72          6           0        4.807742    1.299943    0.898191
     73          6           0        5.287351    0.223052   -1.622379
     74          1           0        3.209490   -0.233504   -1.689439
     75          6           0        6.090082    1.310561    0.374581
     76          1           0        4.605843    1.709373    1.878731
     77          6           0        6.332942    0.772641   -0.888259
     78          1           0        5.474950   -0.203148   -2.599619
     79          1           0        6.903563    1.736510    0.948021
     80          1           0        7.335682    0.780409   -1.297059
     81          6           0        2.390522    0.788287    0.797871
     82          8           0        2.248142    1.154167    1.949801
 ---------------------------------------------------------------------

 SCF Done:  E(RB3LYP) =  -2416.09386685     A.U. after   16 cycles

      1  P    Isotropic =   293.5653   Anisotropy =    52.6039

      2  P    Isotropic =   284.0166   Anisotropy =    79.9304

      3  C    Isotropic =   112.7051   Anisotropy =    49.7585

      4  C    Isotropic =    44.2541   Anisotropy =   170.4708

      5  C    Isotropic =    47.2304   Anisotropy =   187.6675

      6  C    Isotropic =    48.1672   Anisotropy =   191.7054

      7  C    Isotropic =    46.5022   Anisotropy =   195.9028

      8  C    Isotropic =    49.3113   Anisotropy =   189.2778

      9  C    Isotropic =    50.5818   Anisotropy =   183.7211

     10  C    Isotropic =    47.0794   Anisotropy =   164.6282

     11  C    Isotropic =    40.7939   Anisotropy =   180.0514

     12  C    Isotropic =    50.6770   Anisotropy =   185.1121

     13  C    Isotropic =    44.6786   Anisotropy =   198.4975

     14  C    Isotropic =    49.1864   Anisotropy =   188.2923

     15  C    Isotropic =    41.2978   Anisotropy =   196.1032

     16  C    Isotropic =    43.2888   Anisotropy =   175.8962

     17  C    Isotropic =    44.2134   Anisotropy =   180.3679

     18  C    Isotropic =    48.6184   Anisotropy =   189.0215

     19  C    Isotropic =    44.7950   Anisotropy =   198.9166

     20  C    Isotropic =    48.6289   Anisotropy =   191.4776

     21  C    Isotropic =    44.5537   Anisotropy =   196.2369

     22  C    Isotropic =    47.4913   Anisotropy =   155.5077

     23  C    Isotropic =    44.7683   Anisotropy =   199.5518

     24  C    Isotropic =    48.7875   Anisotropy =   191.4019

     25  C    Isotropic =    46.4761   Anisotropy =   196.4926

     26  C    Isotropic =    49.7158   Anisotropy =   189.0071

     27  C    Isotropic =    48.4732   Anisotropy =   186.6761

     28  H    Isotropic =    25.5702   Anisotropy =     6.9019

     29  H    Isotropic =    24.9077   Anisotropy =    11.1862

     30  H    Isotropic =    24.2792   Anisotropy =     6.4968

     31  H    Isotropic =    24.1913   Anisotropy =     3.5539

     32  H    Isotropic =    24.4429   Anisotropy =     7.4660

     33  H    Isotropic =    24.5445   Anisotropy =     8.8771

     34  H    Isotropic =    22.9968   Anisotropy =     9.0276

     35  H    Isotropic =    24.1228   Anisotropy =     6.9730

     36  H    Isotropic =    23.8895   Anisotropy =     3.7297

     37  H    Isotropic =    24.2199   Anisotropy =     6.2347

     38  H    Isotropic =    24.8486   Anisotropy =    12.0017

     39  H    Isotropic =    23.2397   Anisotropy =    10.0542

     40  H    Isotropic =    23.8660   Anisotropy =     6.9551

     41  H    Isotropic =    23.9269   Anisotropy =     3.2330

     42  H    Isotropic =    24.4200   Anisotropy =     5.8912

     43  H    Isotropic =    24.7119   Anisotropy =    11.0916

     44  H    Isotropic =    23.7000   Anisotropy =     7.4439

     45  H    Isotropic =    24.3724   Anisotropy =     7.3441

     46  H    Isotropic =    24.1349   Anisotropy =     3.6362

     47  H    Isotropic =    24.3084   Anisotropy =     6.2298

     48  H    Isotropic =    24.8668   Anisotropy =    11.3010

     49  Rh   Isotropic =  -308.0731   Anisotropy =   341.2500

     50  C    Isotropic =    79.0589   Anisotropy =   120.5575

     51  C    Isotropic =    73.2359   Anisotropy =   122.0354

     52  C    Isotropic =    80.2471   Anisotropy =   120.9454

     53  C    Isotropic =    72.0136   Anisotropy =   124.1045

     54  C    Isotropic =   153.9823   Anisotropy =    24.7835

     55  H    Isotropic =    26.8451   Anisotropy =     5.6928

     56  H    Isotropic =    26.6088   Anisotropy =     4.1487

     57  C    Isotropic =   148.0084   Anisotropy =    28.7399

     58  C    Isotropic =   153.8830   Anisotropy =    25.0732

     59  H    Isotropic =    26.8129   Anisotropy =     5.7433

     60  C    Isotropic =   147.8684   Anisotropy =    29.4564

     61  H    Isotropic =    26.5212   Anisotropy =     4.8025

     62  H    Isotropic =    29.7527   Anisotropy =    11.4930

     63  H    Isotropic =    29.7288   Anisotropy =     9.6384

     64  H    Isotropic =    29.2094   Anisotropy =    12.5583

     65  H    Isotropic =    29.2376   Anisotropy =     7.1644

     66  H    Isotropic =    29.7651   Anisotropy =     9.8073

     67  H    Isotropic =    29.8047   Anisotropy =    11.3585

     68  H    Isotropic =    29.0509   Anisotropy =     7.2176

     69  H    Isotropic =    29.1457   Anisotropy =    12.5458

     70  C    Isotropic =    43.1252   Anisotropy =   170.0983

     71  C    Isotropic =    51.0035   Anisotropy =   183.3148

     72  C    Isotropic =    47.7553   Anisotropy =   203.1085

     73  C    Isotropic =    51.0532   Anisotropy =   186.2035

     74  H    Isotropic =    25.2351   Anisotropy =     8.7946

     75  C    Isotropic =    48.5007   Anisotropy =   190.4324

     76  H    Isotropic =    23.4481   Anisotropy =     9.9197

     77  C    Isotropic =    42.3401   Anisotropy =   199.8056

     78  H    Isotropic =    24.7019   Anisotropy =     8.4237

     79  H    Isotropic =    24.1839   Anisotropy =     5.3459

     80  H    Isotropic =    24.1143   Anisotropy =     4.8492

     81  C    Isotropic =    -9.5966   Anisotropy =   141.3017

     82  O    Isotropic =  -300.0911   Anisotropy =   981.0578

 The electronic state is 1-A.
 Alpha  occ. eigenvalues --  -77.24556 -77.24059 -19.21482 -10.37001 -10.31629
 Alpha  occ. eigenvalues --  -10.29824 -10.29678 -10.29460 -10.29065 -10.29033
 Alpha  occ. eigenvalues --  -10.28941 -10.28816 -10.28789 -10.28687 -10.28454
 Alpha  occ. eigenvalues --  -10.28374 -10.28367 -10.28270 -10.28059 -10.27971
 Alpha  occ. eigenvalues --  -10.27946 -10.27915 -10.27774 -10.27671 -10.27529
 Alpha  occ. eigenvalues --  -10.27514 -10.27495 -10.27488 -10.27467 -10.27404
 Alpha  occ. eigenvalues --  -10.27311 -10.27280 -10.27239 -10.27234 -10.27097
 Alpha  occ. eigenvalues --  -10.27090 -10.27055 -10.26987 -10.26957 -10.26852
 Alpha  occ. eigenvalues --  -10.26786 -10.26750 -10.26704  -6.70439  -6.69982
 Alpha  occ. eigenvalues --   -4.86758  -4.86646  -4.86330  -4.86294  -4.86183
 Alpha  occ. eigenvalues --   -4.85884  -3.31574  -2.08470  -2.07829  -2.05019
 Alpha  occ. eigenvalues --   -1.14937  -0.96942  -0.96582  -0.95865  -0.95802
 Alpha  occ. eigenvalues --   -0.95599  -0.94404  -0.90409  -0.89134  -0.87974
 Alpha  occ. eigenvalues --   -0.87263  -0.86571  -0.85592  -0.85283  -0.84953
 Alpha  occ. eigenvalues --   -0.84736  -0.84664  -0.84580  -0.84436  -0.83957
 Alpha  occ. eigenvalues --   -0.80306  -0.77783  -0.75807  -0.75684  -0.72411
 Alpha  occ. eigenvalues --   -0.71459  -0.71044  -0.70718  -0.70520  -0.70465
 Alpha  occ. eigenvalues --   -0.70209  -0.70133  -0.69897  -0.67612  -0.66921
 Alpha  occ. eigenvalues --   -0.65818  -0.64315  -0.62936  -0.62549  -0.62149
 Alpha  occ. eigenvalues --   -0.62040  -0.60323  -0.60276  -0.59933  -0.57430
 Alpha  occ. eigenvalues --   -0.57052  -0.56610  -0.56350  -0.56234  -0.56091
 Alpha  occ. eigenvalues --   -0.55712  -0.55543  -0.55489  -0.55140  -0.54870
 Alpha  occ. eigenvalues --   -0.54602  -0.53854  -0.53596  -0.53201  -0.53044
 Alpha  occ. eigenvalues --   -0.52903  -0.52671  -0.52573  -0.52478  -0.52309
 Alpha  occ. eigenvalues --   -0.51987  -0.51820  -0.51264  -0.51207  -0.49820
 Alpha  occ. eigenvalues --   -0.48821  -0.48307  -0.48114  -0.47858  -0.47414
 Alpha  occ. eigenvalues --   -0.47308  -0.46862  -0.46236  -0.46013  -0.45947
 Alpha  occ. eigenvalues --   -0.45821  -0.45503  -0.45332  -0.45091  -0.44616
 Alpha  occ. eigenvalues --   -0.44429  -0.44102  -0.43553  -0.43416  -0.43343
 Alpha  occ. eigenvalues --   -0.43159  -0.42894  -0.42813  -0.41410  -0.38155
 Alpha  occ. eigenvalues --   -0.37825  -0.37079  -0.36639  -0.36356  -0.36278
 Alpha  occ. eigenvalues --   -0.36034  -0.35674  -0.35566  -0.35246  -0.35055
 Alpha  occ. eigenvalues --   -0.35016  -0.34790  -0.34349  -0.33972  -0.33585
 Alpha  occ. eigenvalues --   -0.30676
 Alpha virt. eigenvalues --   -0.17115  -0.16303  -0.14866  -0.13730  -0.12927
 Alpha virt. eigenvalues --   -0.12493  -0.12129  -0.11709  -0.10952  -0.10617
 Alpha virt. eigenvalues --   -0.10268  -0.10037  -0.09208  -0.07668  -0.07434

 Mulliken charges:
               1
     1  P    0.411683
     2  P    0.458353
     3  C   -0.625713
     4  C   -0.193892
     5  C   -0.089123
     6  C   -0.095267
     7  C   -0.081525
     8  C   -0.134002
     9  C   -0.006326
    10  C   -0.274472
    11  C   -0.034416
    12  C   -0.103121
    13  C   -0.094791
    14  C   -0.087996
    15  C    0.008299
    16  C   -0.302712
    17  C   -0.072596
    18  C   -0.111162
    19  C   -0.085705
    20  C   -0.101009
    21  C   -0.028595
    22  C   -0.079051
    23  C   -0.089946
    24  C   -0.132500
    25  C   -0.095763
    26  C   -0.087817
    27  C   -0.157050
    28  H    0.229120
    29  H    0.161560
    30  H    0.133365
    31  H    0.139399
    32  H    0.131665
    33  H    0.134797
    34  H    0.181046
    35  H    0.128455
    36  H    0.135218
    37  H    0.133313
    38  H    0.140650
    39  H    0.186017
    40  H    0.132254
    41  H    0.140122
    42  H    0.137057
    43  H    0.163653
    44  H    0.205981
    45  H    0.133111
    46  H    0.135207
    47  H    0.133351
    48  H    0.168668
    49  Rh  -0.705265
    50  C   -0.048228
    51  C   -0.093080
    52  C   -0.040607
    53  C   -0.086078
    54  C   -0.347298
    55  H    0.205038
    56  H    0.204813
    57  C   -0.231510
    58  C   -0.356890
    59  H    0.188632
    60  C   -0.225054
    61  H    0.208864
    62  H    0.167826
    63  H    0.167871
    64  H    0.172637
    65  H    0.137683
    66  H    0.167998
    67  H    0.170285
    68  H    0.131002
    69  H    0.172265
    70  C   -0.185160
    71  C   -0.018884
    72  C   -0.104353
    73  C   -0.128192
    74  H    0.162551
    75  C   -0.073845
    76  H    0.146781
    77  C   -0.076062
    78  H    0.127421
    79  H    0.136209
    80  H    0.136021
    81  C    0.313806
    82  O   -0.294992
 Sum of Mulliken charges =   1.00000

 Dipole moment (field-independent basis, Debye):
    X=             -0.5201    Y=             -0.8443    Z=             -2.3329  Tot=              2.5349
 Quadrupole moment (field-independent basis, Debye-Ang):
   XX=           -219.2141   YY=           -231.4693   ZZ=           -238.6943
   XY=             -1.5473   XZ=             -8.5191   YZ=             -0.4919

 Summary of Natural Population Analysis:

                                       Natural Population
                Natural  -----------------------------------------------
    Atom  No    Charge         Core      Valence    Rydberg      Total
 -----------------------------------------------------------------------
      P    1    1.14579      9.99638     3.80532    0.05251    13.85421
      P    2    1.15073      9.99634     3.80094    0.05198    13.84927
      C    3   -0.84494      1.99928     4.82068    0.02498     6.84494
      C    4   -0.34101      1.99899     4.31892    0.02310     6.34101
      C    5   -0.19675      1.99909     4.18238    0.01528     6.19675
      C    6   -0.18825      1.99920     4.17449    0.01456     6.18825
      C    7   -0.18078      1.99920     4.16699    0.01459     6.18078
      C    8   -0.18778      1.99920     4.17396    0.01462     6.18778
      C    9   -0.20031      1.99909     4.18594    0.01529     6.20031
      C   10   -0.34924      1.99897     4.32519    0.02508     6.34924
      C   11   -0.18187      1.99909     4.16737    0.01542     6.18187
      C   12   -0.20230      1.99919     4.18850    0.01461     6.20230
      C   13   -0.17127      1.99921     4.15759    0.01447     6.17127
      C   14   -0.19263      1.99919     4.17901    0.01443     6.19263
      C   15   -0.16389      1.99909     4.14878    0.01603     6.16389
      C   16   -0.35530      1.99899     4.33235    0.02396     6.35530
      C   17   -0.19729      1.99909     4.18290    0.01529     6.19729
      C   18   -0.19775      1.99920     4.18388    0.01467     6.19775
      C   19   -0.17615      1.99921     4.16237    0.01458     6.17615
      C   20   -0.19021      1.99920     4.17645    0.01456     6.19021
      C   21   -0.18513      1.99909     4.17020    0.01583     6.18513
      C   22   -0.35548      1.99898     4.33264    0.02386     6.35548
      C   23   -0.19403      1.99909     4.17940    0.01554     6.19403
      C   24   -0.18869      1.99920     4.17512    0.01437     6.18869
      C   25   -0.18033      1.99920     4.16653    0.01459     6.18033
      C   26   -0.19525      1.99919     4.18131    0.01474     6.19525
      C   27   -0.20390      1.99909     4.18966    0.01515     6.20390
      H   28    0.26376      0.00000     0.73344    0.00280     0.73624
      H   29    0.21661      0.00000     0.78154    0.00186     0.78339
      H   30    0.22322      0.00000     0.77556    0.00122     0.77678
      H   31    0.22347      0.00000     0.77536    0.00117     0.77653
      H   32    0.22233      0.00000     0.77644    0.00123     0.77767
      H   33    0.21065      0.00000     0.78719    0.00216     0.78935
      H   34    0.22173      0.00000     0.77611    0.00216     0.77827
      H   35    0.21967      0.00000     0.77908    0.00126     0.78033
      H   36    0.22125      0.00000     0.77757    0.00118     0.77875
      H   37    0.22232      0.00000     0.77645    0.00123     0.77768
      H   38    0.22025      0.00000     0.77783    0.00192     0.77975
      H   39    0.22173      0.00000     0.77631    0.00196     0.77827
      H   40    0.22214      0.00000     0.77662    0.00124     0.77786
      H   41    0.22352      0.00000     0.77531    0.00117     0.77648
      H   42    0.22468      0.00000     0.77409    0.00123     0.77532
      H   43    0.22718      0.00000     0.77096    0.00187     0.77282
      H   44    0.24659      0.00000     0.75098    0.00244     0.75341
      H   45    0.22231      0.00000     0.77646    0.00122     0.77769
      H   46    0.22174      0.00000     0.77708    0.00117     0.77826
      H   47    0.22181      0.00000     0.77694    0.00124     0.77819
      H   48    0.21705      0.00000     0.78111    0.00184     0.78295
     Rh   49   -0.39917     35.98555     9.38408    0.02954    45.39917
      C   50   -0.17850      1.99906     4.15999    0.01945     6.17850
      C   51   -0.15504      1.99907     4.13619    0.01977     6.15504
      C   52   -0.17729      1.99907     4.15869    0.01953     6.17729
      C   53   -0.15671      1.99907     4.13785    0.01979     6.15671
      C   54   -0.42361      1.99936     4.41243    0.01182     6.42361
      H   55    0.22604      0.00000     0.77180    0.00216     0.77396
      H   56    0.22946      0.00000     0.76835    0.00219     0.77054
      C   57   -0.41988      1.99935     4.40827    0.01225     6.41988
      C   58   -0.42371      1.99936     4.41256    0.01180     6.42371
      H   59    0.22596      0.00000     0.77193    0.00212     0.77404
      C   60   -0.41819      1.99935     4.40621    0.01262     6.41819
      H   61    0.23132      0.00000     0.76639    0.00229     0.76868
      H   62    0.22754      0.00000     0.77094    0.00151     0.77246
      H   63    0.21512      0.00000     0.78288    0.00201     0.78488
      H   64    0.23442      0.00000     0.76368    0.00189     0.76558
      H   65    0.21974      0.00000     0.77881    0.00145     0.78026
      H   66    0.21485      0.00000     0.78319    0.00196     0.78515
      H   67    0.22892      0.00000     0.76960    0.00148     0.77108
      H   68    0.21592      0.00000     0.78253    0.00155     0.78408
      H   69    0.23397      0.00000     0.76413    0.00190     0.76603
      C   70   -0.17115      1.99899     4.15315    0.01901     6.17115
      C   71   -0.17548      1.99913     4.16118    0.01517     6.17548
      C   72   -0.14115      1.99915     4.12682    0.01519     6.14115
      C   73   -0.20615      1.99921     4.19143    0.01551     6.20615
      H   74    0.20760      0.00000     0.78993    0.00247     0.79240
      C   75   -0.19916      1.99921     4.18527    0.01468     6.19916
      H   76    0.23705      0.00000     0.76132    0.00162     0.76295
      C   77   -0.16066      1.99921     4.14693    0.01452     6.16066
      H   78    0.21958      0.00000     0.77910    0.00131     0.78042
      H   79    0.22299      0.00000     0.77583    0.00118     0.77701
      H   80    0.22129      0.00000     0.77759    0.00112     0.77871
      C   81    0.52730      1.99922     3.43429    0.03919     5.47270
      O   82   -0.52326      1.99978     6.51069    0.01279     8.52326
 =======================================================================
   * Total *    1.00000    137.94418   221.16532    0.89051   360.00000

 Normal termination of Gaussian 16 at Wed Jan 22 16:48:20 2025.
