 Gaussian 16, Revision B.01,
 Gaussian 16:  ES64L-G16RevB.01 20-Dec-2017

 ------------------------------------------
 # nmr=giao b3lyp/genecp pop=nbo scfcyc=200
 ------------------------------------------

 ---------
 MS-49_SPE
 ---------
 Symbolic Z-matrix:
 Charge =  1 Multiplicity = 1

                         Standard orientation:
 ---------------------------------------------------------------------
 Center     Atomic      Atomic             Coordinates (Angstroms)
 Number     Number       Type             X           Y           Z
 ---------------------------------------------------------------------
      1          6           0       -0.985150    2.774520   -1.140030
      2          6           0       -1.978230    3.747320   -0.967030
      3          1           0       -2.629590    3.714540   -0.102110
      4          6           0       -2.124990    4.776500   -1.888730
      5          1           0       -2.893520    5.524360   -1.738740
      6          6           0       -1.286510    4.848090   -2.997500
      7          1           0       -1.399890    5.651770   -3.713880
      8          6           0       -0.300750    3.885150   -3.178810
      9          1           0        0.358810    3.936940   -4.035990
     10          6           0       -0.152970    2.850410   -2.259460
     11          1           0        0.623960    2.116380   -2.426800
     12          6           0       -0.952990    2.193870    1.712860
     13          6           0       -0.229120    3.364710    1.968660
     14          1           0        0.349400    3.833650    1.183300
     15          6           0       -0.267380    3.949320    3.228130
     16          1           0        0.294310    4.855660    3.416600
     17          6           0       -1.029980    3.376740    4.243020
     18          1           0       -1.061100    3.837830    5.222210
     19          6           0       -1.759230    2.219730    3.994260
     20          1           0       -2.362100    1.778190    4.777840
     21          6           0       -1.723040    1.631750    2.733950
     22          1           0       -2.298340    0.735740    2.537140
     23          6           0        0.754620    0.502250   -0.140000
     24          1           0        0.902750    0.480110   -1.222440
     25          6           0        2.008930    1.028030    0.556260
     26          1           0        1.946930    0.863090    1.633810
     27          1           0        2.008340    2.127210    0.459080
     28          6           0        0.502900   -1.718150    1.920770
     29          6           0        1.836010   -1.876600    2.319320
     30          1           0        2.642090   -1.722880    1.614420
     31          6           0        2.139660   -2.249120    3.622670
     32          1           0        3.174090   -2.368070    3.919530
     33          6           0        1.118650   -2.471290    4.543060
     34          1           0        1.358550   -2.764230    5.557440
     35          6           0       -0.207720   -2.321180    4.155960
     36          1           0       -1.005010   -2.497820    4.866950
     37          6           0       -0.513950   -1.945260    2.852020
     38          1           0       -1.547610   -1.825640    2.554150
     39          6           0        0.872900   -2.433210   -0.917080
     40          6           0        1.356810   -3.661400   -0.458630
     41          1           0        1.325000   -3.904480    0.594470
     42          6           0        1.887900   -4.585630   -1.354390
     43          1           0        2.262720   -5.531840   -0.984770
     44          6           0        1.937950   -4.297820   -2.712800
     45          1           0        2.353430   -5.017550   -3.406640
     46          6           0        1.442750   -3.082840   -3.179600
     47          1           0        1.468910   -2.855770   -4.238070
     48          6           0        0.904750   -2.161690   -2.290510
     49          1           0        0.498210   -1.234440   -2.676370
     50         15           0       -0.913960    1.377290    0.063700
     51         15           0        0.045790   -1.225920    0.208710
     52          5           0        3.445960    0.675430   -0.018030
     53          6           0        3.793640    0.438830   -1.534730
     54          1           0        2.928910    0.241670   -2.174710
     55          6           0        4.829860   -0.713360   -1.719470
     56          1           0        4.389010   -1.497890   -2.338390
     57          1           0        5.700650   -0.349429   -2.272850
     58          6           0        5.290760   -1.332110   -0.391890
     59          1           0        6.081790   -2.064049   -0.576140
     60          1           0        4.453030   -1.900580    0.035040
     61          6           0        5.762940   -0.295659    0.637960
     62          1           0        5.946160   -0.799949    1.589840
     63          1           0        6.730940    0.108531    0.327380
     64          6           0        4.741880    0.864790    0.855840
     65          1           0        4.532920    0.970370    1.923980
     66          6           0        5.315870    2.237410    0.363070
     67          1           0        4.610690    3.038210    0.615360
     68          1           0        6.233560    2.458431    0.916520
     69          6           0        5.592090    2.260121   -1.144750
     70          1           0        6.441270    1.610511   -1.370500
     71          1           0        5.899930    3.265041   -1.445830
     72          6           0        4.381220    1.825090   -1.978690
     73          1           0        4.655290    1.769250   -3.036850
     74          1           0        3.600550    2.592510   -1.907250
     75         45           0       -2.173980   -0.587610   -0.240950
     76          6           0       -4.343120    0.122460   -0.238080
     77          6           0       -3.818330    0.309260   -1.499320
     78          6           0       -2.942860   -2.471040   -1.279050
     79          6           0       -3.221630   -2.562940    0.067960
     80          6           0       -5.267680   -1.008160    0.174400
     81          1           0       -4.319560    0.974900    0.432950
     82          1           0       -3.452090    1.300650   -1.742760
     83          6           0       -3.981720   -0.600960   -2.691440
     84          6           0       -3.941860   -2.108310   -2.362000
     85          1           0       -2.031390   -2.945560   -1.624850
     86          6           0       -4.532840   -2.242820    0.743160
     87          1           0       -2.532230   -3.142800    0.673760
     88          1           0       -5.952760   -0.634180    0.937090
     89          1           0       -5.891840   -1.296430   -0.671150
     90          1           0       -4.916750   -0.360270   -3.212900
     91          1           0       -3.180680   -0.367270   -3.395960
     92          1           0       -4.932910   -2.461270   -2.077430
     93          1           0       -3.678890   -2.653470   -3.270050
     94          1           0       -4.329920   -2.078800    1.804210
     95          1           0       -5.194440   -3.117050    0.701190
 ---------------------------------------------------------------------

 SCF Done:  E(RB3LYP) =  -2448.58131936     A.U. after   17 cycles

      1  C    Isotropic =    44.3940   Anisotropy =   170.0036

      2  C    Isotropic =    46.4902   Anisotropy =   189.8198

      3  H    Isotropic =    24.8939   Anisotropy =    11.8708

      4  C    Isotropic =    47.7743   Anisotropy =   191.8430

      5  H    Isotropic =    24.2040   Anisotropy =     6.5282

      6  C    Isotropic =    46.8075   Anisotropy =   195.7335

      7  H    Isotropic =    24.0239   Anisotropy =     3.7004

      8  C    Isotropic =    49.1089   Anisotropy =   188.6223

      9  H    Isotropic =    23.9760   Anisotropy =     7.0589

     10  C    Isotropic =    50.5495   Anisotropy =   186.2923

     11  H    Isotropic =    23.8219   Anisotropy =    10.1903

     12  C    Isotropic =    47.2694   Anisotropy =   170.6947

     13  C    Isotropic =    43.6799   Anisotropy =   190.6122

     14  H    Isotropic =    24.8173   Anisotropy =    10.7904

     15  C    Isotropic =    49.7100   Anisotropy =   188.3698

     16  H    Isotropic =    24.4428   Anisotropy =     6.3184

     17  C    Isotropic =    45.1577   Anisotropy =   198.1562

     18  H    Isotropic =    24.1747   Anisotropy =     3.7766

     19  C    Isotropic =    50.2389   Anisotropy =   186.7690

     20  H    Isotropic =    24.2803   Anisotropy =     7.0749

     21  C    Isotropic =    40.0655   Anisotropy =   180.3510

     22  H    Isotropic =    23.3391   Anisotropy =    10.0228

     23  C    Isotropic =   119.8057   Anisotropy =    59.2244

     24  H    Isotropic =    26.2890   Anisotropy =     4.9661

     25  C    Isotropic =   152.1958   Anisotropy =    31.3387

     26  H    Isotropic =    30.3019   Anisotropy =     4.5986

     27  H    Isotropic =    30.3587   Anisotropy =     6.7004

     28  C    Isotropic =    51.8502   Anisotropy =   166.1866

     29  C    Isotropic =    42.5889   Anisotropy =   191.8442

     30  H    Isotropic =    24.7353   Anisotropy =     8.1456

     31  C    Isotropic =    49.9790   Anisotropy =   187.8297

     32  H    Isotropic =    24.2592   Anisotropy =     6.9177

     33  C    Isotropic =    44.7203   Anisotropy =   199.0636

     34  H    Isotropic =    24.0202   Anisotropy =     3.8307

     35  C    Isotropic =    48.8922   Anisotropy =   188.6993

     36  H    Isotropic =    23.9866   Anisotropy =     6.9193

     37  C    Isotropic =    39.9068   Anisotropy =   180.6769

     38  H    Isotropic =    23.3593   Anisotropy =    10.1925

     39  C    Isotropic =    43.9379   Anisotropy =   171.2619

     40  C    Isotropic =    46.7406   Anisotropy =   193.1760

     41  H    Isotropic =    24.9653   Anisotropy =    12.4805

     42  C    Isotropic =    49.0359   Anisotropy =   189.9991

     43  H    Isotropic =    24.4219   Anisotropy =     6.1939

     44  C    Isotropic =    46.7073   Anisotropy =   196.0285

     45  H    Isotropic =    24.1527   Anisotropy =     3.2407

     46  C    Isotropic =    48.9995   Anisotropy =   190.2626

     47  H    Isotropic =    24.0050   Anisotropy =     6.4550

     48  C    Isotropic =    47.7278   Anisotropy =   190.3061

     49  H    Isotropic =    23.6454   Anisotropy =     9.7849

     50  P    Isotropic =   290.1576   Anisotropy =    65.4863

     51  P    Isotropic =   287.9018   Anisotropy =    80.3300

     52  B    Isotropic =    10.2827   Anisotropy =   167.3080

     53  C    Isotropic =   147.5269   Anisotropy =    30.1782

     54  H    Isotropic =    29.9471   Anisotropy =     9.6885

     55  C    Isotropic =   149.4337   Anisotropy =    25.0468

     56  H    Isotropic =    30.7993   Anisotropy =     8.0255

     57  H    Isotropic =    30.2319   Anisotropy =     6.7641

     58  C    Isotropic =   152.5391   Anisotropy =     4.8964

     59  H    Isotropic =    30.5409   Anisotropy =     9.7054

     60  H    Isotropic =    31.8365   Anisotropy =     8.6494

     61  C    Isotropic =   148.7461   Anisotropy =    25.9063

     62  H    Isotropic =    29.9492   Anisotropy =     9.6903

     63  H    Isotropic =    30.1672   Anisotropy =     7.7282

     64  C    Isotropic =   145.0537   Anisotropy =    15.4544

     65  H    Isotropic =    30.4273   Anisotropy =     5.5205

     66  C    Isotropic =   140.8390   Anisotropy =    24.0308

     67  H    Isotropic =    30.7825   Anisotropy =     6.7060

     68  H    Isotropic =    29.9748   Anisotropy =    11.1893

     69  C    Isotropic =   163.0882   Anisotropy =    16.4321

     70  H    Isotropic =    30.0243   Anisotropy =     7.4504

     71  H    Isotropic =    30.7471   Anisotropy =    12.1621

     72  C    Isotropic =   141.6086   Anisotropy =    25.4391

     73  H    Isotropic =    29.8250   Anisotropy =     9.2333

     74  H    Isotropic =    30.5602   Anisotropy =     6.7072

     75  Rh   Isotropic =  -291.5818   Anisotropy =   323.4958

     76  C    Isotropic =    80.6304   Anisotropy =   119.0567

     77  C    Isotropic =    71.3526   Anisotropy =   126.0145

     78  C    Isotropic =    73.5243   Anisotropy =   129.1504

     79  C    Isotropic =    78.9791   Anisotropy =   112.6848

     80  C    Isotropic =   153.9982   Anisotropy =    25.5312

     81  H    Isotropic =    26.8575   Anisotropy =     7.1218

     82  H    Isotropic =    26.9060   Anisotropy =     4.9019

     83  C    Isotropic =   147.9693   Anisotropy =    29.3701

     84  C    Isotropic =   153.9130   Anisotropy =    25.2805

     85  H    Isotropic =    27.5439   Anisotropy =     5.2213

     86  C    Isotropic =   147.9873   Anisotropy =    29.5919

     87  H    Isotropic =    26.5517   Anisotropy =     4.7466

     88  H    Isotropic =    29.7327   Anisotropy =    11.9676

     89  H    Isotropic =    29.7216   Anisotropy =     9.8832

     90  H    Isotropic =    29.3529   Anisotropy =    12.5422

     91  H    Isotropic =    29.3758   Anisotropy =     6.7172

     92  H    Isotropic =    29.8557   Anisotropy =     9.9898

     93  H    Isotropic =    30.0719   Anisotropy =    10.9460

     94  H    Isotropic =    28.8888   Anisotropy =     8.5324

     95  H    Isotropic =    29.0151   Anisotropy =    12.9720

 The electronic state is 1-A.
 Alpha  occ. eigenvalues --  -77.23416 -77.23168 -10.30725 -10.29510 -10.29484
 Alpha  occ. eigenvalues --  -10.29478 -10.29124 -10.28668 -10.28635 -10.28569
 Alpha  occ. eigenvalues --  -10.28469 -10.28345 -10.28333 -10.28301 -10.28236
 Alpha  occ. eigenvalues --  -10.28067 -10.27969 -10.27959 -10.27930 -10.27682
 Alpha  occ. eigenvalues --  -10.27559 -10.27537 -10.27479 -10.27471 -10.27415
 Alpha  occ. eigenvalues --  -10.27340 -10.27340 -10.27330 -10.27321 -10.27267
 Alpha  occ. eigenvalues --  -10.27222 -10.27195 -10.27164 -10.27035 -10.26956
 Alpha  occ. eigenvalues --  -10.25332 -10.24861 -10.24431 -10.23759 -10.23711
 Alpha  occ. eigenvalues --  -10.23637 -10.23613 -10.23005 -10.22471  -6.81334
 Alpha  occ. eigenvalues --   -6.69367  -6.69145  -4.85630  -4.85602  -4.85410
 Alpha  occ. eigenvalues --   -4.85375  -4.85280  -4.85056  -3.31148  -2.08044
 Alpha  occ. eigenvalues --   -2.07368  -2.04635  -0.96753  -0.96512  -0.96008
 Alpha  occ. eigenvalues --   -0.95851  -0.94101  -0.90846  -0.90007  -0.88818
 Alpha  occ. eigenvalues --   -0.87687  -0.87108  -0.85551  -0.85336  -0.85165
 Alpha  occ. eigenvalues --   -0.85039  -0.84991  -0.84948  -0.84755  -0.84632
 Alpha  occ. eigenvalues --   -0.83385  -0.80035  -0.78383  -0.77496  -0.75416
 Alpha  occ. eigenvalues --   -0.75049  -0.74500  -0.72065  -0.71201  -0.70975
 Alpha  occ. eigenvalues --   -0.70819  -0.70429  -0.70247  -0.70162  -0.70025
 Alpha  occ. eigenvalues --   -0.66906  -0.65980  -0.65589  -0.65501  -0.64612
 Alpha  occ. eigenvalues --   -0.62842  -0.62485  -0.62162  -0.62038  -0.60858
 Alpha  occ. eigenvalues --   -0.60309  -0.59671  -0.56794  -0.56691  -0.56372
 Alpha  occ. eigenvalues --   -0.56165  -0.56101  -0.55986  -0.55888  -0.55625
 Alpha  occ. eigenvalues --   -0.55345  -0.55325  -0.54970  -0.54682  -0.53977
 Alpha  occ. eigenvalues --   -0.53357  -0.52975  -0.52766  -0.52618  -0.52467
 Alpha  occ. eigenvalues --   -0.52431  -0.52286  -0.52186  -0.51734  -0.51484
 Alpha  occ. eigenvalues --   -0.50920  -0.50845  -0.50476  -0.49258  -0.48586
 Alpha  occ. eigenvalues --   -0.48328  -0.47768  -0.47683  -0.47530  -0.47453
 Alpha  occ. eigenvalues --   -0.47139  -0.47007  -0.46923  -0.46308  -0.45879
 Alpha  occ. eigenvalues --   -0.45711  -0.45561  -0.45156  -0.44961  -0.44891
 Alpha  occ. eigenvalues --   -0.44711  -0.43449  -0.43327  -0.43206  -0.42970
 Alpha  occ. eigenvalues --   -0.42758  -0.42609  -0.42230  -0.41672  -0.41214
 Alpha  occ. eigenvalues --   -0.41088  -0.40994  -0.40313  -0.40099  -0.38025
 Alpha  occ. eigenvalues --   -0.37886  -0.37386  -0.36635  -0.36307  -0.36071
 Alpha  occ. eigenvalues --   -0.35925  -0.35837  -0.35676  -0.35285  -0.35199
 Alpha  occ. eigenvalues --   -0.34377  -0.34340  -0.34191  -0.33893  -0.33435
 Alpha  occ. eigenvalues --   -0.30377
 Alpha virt. eigenvalues --   -0.16014  -0.14572  -0.13800  -0.13012  -0.12821
 Alpha virt. eigenvalues --   -0.12153  -0.11616  -0.10917  -0.10564  -0.10446
 Alpha virt. eigenvalues --   -0.10101  -0.09014  -0.07551  -0.06951  -0.06289

 Mulliken charges:
               1
     1  C   -0.170793
     2  C   -0.074763
     3  H    0.154047
     4  C   -0.086962
     5  H    0.134988
     6  C   -0.093760
     7  H    0.138684
     8  C   -0.121759
     9  H    0.131224
    10  C   -0.065933
    11  H    0.136279
    12  C   -0.287915
    13  C   -0.032176
    14  H    0.153401
    15  C   -0.101666
    16  H    0.134038
    17  C   -0.083956
    18  H    0.137111
    19  C   -0.121655
    20  H    0.125994
    21  C    0.011414
    22  H    0.158605
    23  C   -0.432624
    24  H    0.162857
    25  C   -0.235161
    26  H    0.217085
    27  H    0.164174
    28  C   -0.278987
    29  C    0.002492
    30  H    0.159214
    31  C   -0.141613
    32  H    0.135369
    33  C   -0.064813
    34  H    0.137937
    35  C   -0.137256
    36  H    0.128247
    37  C    0.008989
    38  H    0.168151
    39  C   -0.133838
    40  C   -0.085088
    41  H    0.165192
    42  C   -0.082881
    43  H    0.134523
    44  C   -0.111672
    45  H    0.136986
    46  C   -0.082084
    47  H    0.129690
    48  C   -0.100049
    49  H    0.145700
    50  P    0.380160
    51  P    0.302346
    52  B   -0.374541
    53  C   -0.047616
    54  H    0.154104
    55  C   -0.309448
    56  H    0.149346
    57  H    0.145261
    58  C   -0.220045
    59  H    0.141950
    60  H    0.117969
    61  C   -0.301372
    62  H    0.139151
    63  H    0.143601
    64  C    0.000380
    65  H    0.169873
    66  C   -0.254423
    67  H    0.129166
    68  H    0.161500
    69  C   -0.237852
    70  H    0.130982
    71  H    0.154937
    72  C   -0.278713
    73  H    0.157316
    74  H    0.127259
    75  Rh  -0.646006
    76  C   -0.012085
    77  C   -0.114768
    78  C   -0.031969
    79  C   -0.100980
    80  C   -0.349082
    81  H    0.182988
    82  H    0.221585
    83  C   -0.224568
    84  C   -0.353380
    85  H    0.209907
    86  C   -0.217421
    87  H    0.195684
    88  H    0.168369
    89  H    0.168381
    90  H    0.170953
    91  H    0.131304
    92  H    0.166271
    93  H    0.168095
    94  H    0.129146
    95  H    0.171295
 Sum of Mulliken charges =   1.00000

 Dipole moment (field-independent basis, Debye):
    X=             -2.6476    Y=             -0.1470    Z=              0.3132  Tot=              2.6701
 Quadrupole moment (field-independent basis, Debye-Ang):
   XX=           -249.8764   YY=           -251.7618   ZZ=           -252.2034
   XY=             -3.1256   XZ=             -1.1587   YZ=             -2.4627

 Summary of Natural Population Analysis:

                                       Natural Population
                Natural  -----------------------------------------------
    Atom  No    Charge         Core      Valence    Rydberg      Total
 -----------------------------------------------------------------------
      C    1   -0.33697      1.99899     4.31470    0.02327     6.33697
      C    2   -0.19871      1.99909     4.18449    0.01513     6.19871
      H    3    0.21980      0.00000     0.77847    0.00172     0.78020
      C    4   -0.18887      1.99920     4.17502    0.01466     6.18887
      H    5    0.22306      0.00000     0.77572    0.00122     0.77694
      C    6   -0.18278      1.99920     4.16889    0.01468     6.18278
      H    7    0.22319      0.00000     0.77563    0.00117     0.77681
      C    8   -0.19016      1.99920     4.17626    0.01470     6.19016
      H    9    0.22133      0.00000     0.77744    0.00123     0.77867
      C   10   -0.20076      1.99909     4.18609    0.01559     6.20076
      H   11    0.20624      0.00000     0.79138    0.00238     0.79376
      C   12   -0.34976      1.99898     4.32669    0.02409     6.34976
      C   13   -0.18439      1.99909     4.16971    0.01559     6.18439
      H   14    0.21742      0.00000     0.78069    0.00189     0.78258
      C   15   -0.19482      1.99920     4.18103    0.01459     6.19482
      H   16    0.22235      0.00000     0.77642    0.00123     0.77765
      C   17   -0.17395      1.99921     4.16026    0.01448     6.17395
      H   18    0.22201      0.00000     0.77681    0.00118     0.77799
      C   19   -0.19835      1.99919     4.18465    0.01451     6.19835
      H   20    0.21958      0.00000     0.77917    0.00125     0.78042
      C   21   -0.17947      1.99909     4.16492    0.01546     6.17947
      H   22    0.21956      0.00000     0.77839    0.00205     0.78044
      C   23   -0.71104      1.99937     4.68501    0.02666     6.71104
      H   24    0.24507      0.00000     0.75113    0.00380     0.75493
      C   25   -0.87413      1.99917     4.85629    0.01867     6.87413
      H   26    0.23925      0.00000     0.75722    0.00353     0.76075
      H   27    0.26170      0.00000     0.73509    0.00320     0.73830
      C   28   -0.35320      1.99898     4.32959    0.02463     6.35320
      C   29   -0.18838      1.99909     4.17136    0.01794     6.18838
      H   30    0.21719      0.00000     0.78020    0.00261     0.78281
      C   31   -0.19548      1.99919     4.18123    0.01507     6.19548
      H   32    0.22316      0.00000     0.77555    0.00129     0.77684
      C   33   -0.17144      1.99920     4.15776    0.01447     6.17144
      H   34    0.22296      0.00000     0.77591    0.00113     0.77704
      C   35   -0.19823      1.99919     4.18434    0.01469     6.19823
      H   36    0.22060      0.00000     0.77816    0.00124     0.77940
      C   37   -0.17780      1.99911     4.16271    0.01598     6.17780
      H   38    0.21802      0.00000     0.77965    0.00233     0.78198
      C   39   -0.34077      1.99898     4.31801    0.02378     6.34077
      C   40   -0.19479      1.99909     4.18066    0.01504     6.19479
      H   41    0.22421      0.00000     0.77406    0.00173     0.77579
      C   42   -0.18965      1.99920     4.17579    0.01466     6.18965
      H   43    0.22271      0.00000     0.77607    0.00122     0.77729
      C   44   -0.18160      1.99920     4.16767    0.01473     6.18160
      H   45    0.22290      0.00000     0.77592    0.00118     0.77710
      C   46   -0.19416      1.99919     4.18019    0.01478     6.19416
      H   47    0.22106      0.00000     0.77768    0.00126     0.77894
      C   48   -0.19677      1.99909     4.18256    0.01512     6.19677
      H   49    0.21039      0.00000     0.78772    0.00190     0.78961
      P   50    1.12573      9.99636     3.82683    0.05108    13.87427
      P   51    1.12348      9.99635     3.82729    0.05289    13.87652
      B   52    1.14584      1.99909     1.81908    0.03599     3.85416
      C   53   -0.65675      1.99906     4.64280    0.01489     6.65675
      H   54    0.20024      0.00000     0.79725    0.00251     0.79976
      C   55   -0.37587      1.99939     4.36391    0.01257     6.37587
      H   56    0.20727      0.00000     0.79075    0.00198     0.79273
      H   57    0.19803      0.00000     0.79983    0.00214     0.80197
      C   58   -0.38227      1.99941     4.37345    0.00941     6.38227
      H   59    0.21350      0.00000     0.78491    0.00159     0.78650
      H   60    0.17698      0.00000     0.82074    0.00229     0.82302
      C   61   -0.37753      1.99939     4.36538    0.01276     6.37753
      H   62    0.20744      0.00000     0.79115    0.00141     0.79256
      H   63    0.19901      0.00000     0.79892    0.00207     0.80099
      C   64   -0.64697      1.99908     4.63334    0.01455     6.64697
      H   65    0.21045      0.00000     0.78657    0.00297     0.78955
      C   66   -0.35957      1.99939     4.34861    0.01157     6.35957
      H   67    0.19264      0.00000     0.80565    0.00171     0.80736
      H   68    0.21397      0.00000     0.78433    0.00170     0.78603
      C   69   -0.40356      1.99940     4.39436    0.00980     6.40356
      H   70    0.19801      0.00000     0.79990    0.00209     0.80199
      H   71    0.21738      0.00000     0.78123    0.00140     0.78262
      C   72   -0.36162      1.99939     4.35067    0.01156     6.36162
      H   73    0.21149      0.00000     0.78672    0.00179     0.78851
      H   74    0.19039      0.00000     0.80788    0.00174     0.80961
     Rh   75   -0.40709     35.98591     9.39309    0.02810    45.40709
      C   76   -0.18363      1.99907     4.16515    0.01941     6.18363
      C   77   -0.15455      1.99910     4.13520    0.02026     6.15455
      C   78   -0.15945      1.99906     4.14116    0.01922     6.15945
      C   79   -0.17559      1.99907     4.15668    0.01984     6.17559
      C   80   -0.42238      1.99936     4.41130    0.01172     6.42238
      H   81    0.22645      0.00000     0.77169    0.00186     0.77355
      H   82    0.23176      0.00000     0.76599    0.00225     0.76824
      C   83   -0.41792      1.99935     4.40569    0.01288     6.41792
      C   84   -0.42371      1.99936     4.41257    0.01178     6.42371
      H   85    0.23156      0.00000     0.76643    0.00202     0.76844
      C   86   -0.41702      1.99935     4.40501    0.01266     6.41702
      H   87    0.22653      0.00000     0.77157    0.00189     0.77347
      H   88    0.22783      0.00000     0.77067    0.00150     0.77217
      H   89    0.21494      0.00000     0.78310    0.00196     0.78506
      H   90    0.23290      0.00000     0.76523    0.00187     0.76710
      H   91    0.21677      0.00000     0.78174    0.00149     0.78323
      H   92    0.21409      0.00000     0.78392    0.00199     0.78591
      H   93    0.22843      0.00000     0.77009    0.00149     0.77157
      H   94    0.21159      0.00000     0.78685    0.00156     0.78841
      H   95    0.23343      0.00000     0.76463    0.00194     0.76657
 =======================================================================
   * Total *    1.00000    141.94353   237.12962    0.92685   380.00000

 Normal termination of Gaussian 16 at Wed Jan 22 18:53:28 2025.
