 Gaussian 16, Revision B.01,
 Gaussian 16:  ES64L-G16RevB.01 20-Dec-2017

 ------------------------------------------
 # nmr=giao b3lyp/genecp pop=nbo scfcyc=200
 ------------------------------------------

 ---------
 MS-46_SPE
 ---------
 Symbolic Z-matrix:
 Charge =  1 Multiplicity = 1

                         Standard orientation:
 ---------------------------------------------------------------------
 Center     Atomic      Atomic             Coordinates (Angstroms)
 Number     Number       Type             X           Y           Z
 ---------------------------------------------------------------------
      1          6           0        0.760110    0.015029   -0.745020
      2          1           0        0.472620   -0.012801   -1.799460
      3          6           0       -0.371901   -2.726820   -1.339080
      4          6           0       -0.237442   -4.077850   -1.007300
      5          1           0       -0.030702   -4.373300    0.011990
      6          6           0       -0.363352   -5.058690   -1.987140
      7          1           0       -0.252433   -6.101000   -1.715470
      8          6           0       -0.626742   -4.705170   -3.304880
      9          1           0       -0.720362   -5.469870   -4.065500
     10          6           0       -0.778731   -3.362740   -3.641140
     11          1           0       -0.994451   -3.079440   -4.663820
     12          6           0       -0.662051   -2.381700   -2.664880
     13          1           0       -0.814411   -1.345990   -2.944120
     14          6           0        0.499879   -2.138331    1.408410
     15          6           0        1.739969   -2.780831    1.303480
     16          1           0        2.240349   -2.852411    0.347150
     17          6           0        2.337209   -3.331691    2.430190
     18          1           0        3.295778   -3.826982    2.339810
     19          6           0        1.709089   -3.246281    3.670000
     20          1           0        2.177118   -3.679771    4.545010
     21          6           0        0.479979   -2.606421    3.783220
     22          1           0       -0.012311   -2.539660    4.745300
     23          6           0       -0.122121   -2.054560    2.657130
     24          1           0       -1.078711   -1.555960    2.746800
     25          6           0       -0.380909    2.761460   -1.330020
     26          6           0        0.237911    2.664739   -2.577530
     27          1           0        0.814071    1.789849   -2.845020
     28          6           0        0.146811    3.711719   -3.491040
     29          1           0        0.640231    3.627389   -4.451210
     30          6           0       -0.565098    4.861370   -3.171330
     31          1           0       -0.633808    5.674080   -3.883240
     32          6           0       -1.183308    4.967260   -1.928240
     33          1           0       -1.733618    5.862960   -1.668720
     34          6           0       -1.093939    3.925390   -1.014270
     35          1           0       -1.566438    4.030300   -0.044670
     36          6           0        0.347801    2.180339    1.413680
     37          6           0       -0.174849    1.859520    2.669130
     38          1           0       -0.998250    1.159660    2.742360
     39          6           0        0.351201    2.440369    3.818640
     40          1           0       -0.061429    2.188350    4.787520
     41          6           0        1.396911    3.351669    3.720370
     42          1           0        1.802121    3.810029    4.613840
     43          6           0        1.916741    3.682379    2.471270
     44          1           0        2.727702    4.395478    2.392130
     45          6           0        1.396971    3.101799    1.321500
     46          1           0        1.806321    3.368849    0.356110
     47          6           0        2.251900    0.024249   -0.666390
     48          6           0        3.008350   -0.151412   -1.832980
     49          1           0        2.503100   -0.285961   -2.783750
     50          6           0        4.391200   -0.166392   -1.821600
     51          1           0        4.914820   -0.301362   -2.756170
     52          6           0        5.109620   -0.004683   -0.614950
     53          6           0        4.346730    0.172618    0.562000
     54          1           0        4.838370    0.304578    1.514260
     55          6           0        2.963550    0.180058    0.529470
     56          1           0        2.432800    0.310439    1.462470
     57         15           0       -0.327171   -1.400170   -0.054260
     58         15           0       -0.372610    1.397420   -0.087360
     59         45           0       -2.225040   -0.039140    0.204980
     60          6           0       -3.858021   -1.546099   -0.318190
     61          6           0       -3.667861   -1.551579    1.047640
     62          6           0       -3.917030    1.356021    0.843980
     63          6           0       -3.828800    1.367331   -0.531730
     64          6           0       -5.000960   -0.861468   -1.044060
     65          1           0       -3.322871   -2.294469   -0.891750
     66          1           0       -3.033511   -2.333979    1.452380
     67          6           0       -4.494770   -0.820559    2.077360
     68          6           0       -4.949510    0.594442    1.654620
     69          1           0       -3.395329    2.144901    1.375910
     70          6           0       -4.674080    0.576361   -1.499440
     71          1           0       -3.274109    2.179671   -0.988060
     72          1           0       -5.254131   -1.453728   -1.924980
     73          1           0       -5.889880   -0.867568   -0.413450
     74          1           0       -5.370711   -1.424328    2.345740
     75          1           0       -3.899010   -0.744979    2.990170
     76          1           0       -5.883890    0.539732    1.096340
     77          1           0       -5.173570    1.167392    2.556000
     78          1           0       -4.136780    0.537221   -2.449330
     79          1           0       -5.604450    1.120672   -1.705250
     80          7           0        6.480910   -0.024043   -0.587350
     81          6           0        7.236070   -0.132313   -1.825610
     82          1           0        7.057450    0.717247   -2.494880
     83          1           0        8.297360   -0.160404   -1.593170
     84          1           0        6.990089   -1.051443   -2.365100
     85          6           0        7.191270    0.230647    0.655560
     86          1           0        6.928740   -0.501713    1.424640
     87          1           0        8.260300    0.152036    0.476280
     88          1           0        6.986180    1.232067    1.051400
 ---------------------------------------------------------------------

 SCF Done:  E(RB3LYP) =  -2436.74527877     A.U. after   16 cycles

      1  C    Isotropic =   109.7928   Anisotropy =    69.5854

      2  H    Isotropic =    25.7348   Anisotropy =     4.6574

      3  C    Isotropic =    43.3884   Anisotropy =   170.2434

      4  C    Isotropic =    46.4903   Anisotropy =   191.6567

      5  H    Isotropic =    24.9967   Anisotropy =    13.3272

      6  C    Isotropic =    49.0930   Anisotropy =   188.6983

      7  H    Isotropic =    24.4466   Anisotropy =     6.5890

      8  C    Isotropic =    46.9826   Anisotropy =   194.5012

      9  H    Isotropic =    24.1638   Anisotropy =     3.5295

     10  C    Isotropic =    49.2413   Anisotropy =   188.3483

     11  H    Isotropic =    23.9904   Anisotropy =     6.9054

     12  C    Isotropic =    48.7264   Anisotropy =   187.6946

     13  H    Isotropic =    23.6329   Anisotropy =    10.8773

     14  C    Isotropic =    51.2156   Anisotropy =   167.5243

     15  C    Isotropic =    40.8468   Anisotropy =   199.7735

     16  H    Isotropic =    25.2390   Anisotropy =     8.9601

     17  C    Isotropic =    50.3383   Anisotropy =   188.4924

     18  H    Isotropic =    24.5524   Anisotropy =     6.2289

     19  C    Isotropic =    44.9619   Anisotropy =   198.4051

     20  H    Isotropic =    24.0620   Anisotropy =     3.6711

     21  C    Isotropic =    49.7674   Anisotropy =   187.1489

     22  H    Isotropic =    24.0259   Anisotropy =     6.9066

     23  C    Isotropic =    40.6496   Anisotropy =   180.7539

     24  H    Isotropic =    23.3473   Anisotropy =    10.1679

     25  C    Isotropic =    42.9973   Anisotropy =   171.7303

     26  C    Isotropic =    49.9382   Anisotropy =   185.5138

     27  H    Isotropic =    23.7861   Anisotropy =    11.1464

     28  C    Isotropic =    49.5115   Anisotropy =   188.0745

     29  H    Isotropic =    24.0658   Anisotropy =     6.8080

     30  C    Isotropic =    47.0414   Anisotropy =   194.6975

     31  H    Isotropic =    24.1088   Anisotropy =     3.5137

     32  C    Isotropic =    48.1961   Anisotropy =   191.0075

     33  H    Isotropic =    24.2598   Anisotropy =     6.6652

     34  C    Isotropic =    46.8230   Anisotropy =   187.1898

     35  H    Isotropic =    24.9501   Anisotropy =    11.4655

     36  C    Isotropic =    45.8100   Anisotropy =   172.1236

     37  C    Isotropic =    40.8450   Anisotropy =   178.7922

     38  H    Isotropic =    23.1203   Anisotropy =     9.9571

     39  C    Isotropic =    50.6549   Anisotropy =   185.4442

     40  H    Isotropic =    24.1983   Anisotropy =     7.0175

     41  C    Isotropic =    45.5169   Anisotropy =   197.4268

     42  H    Isotropic =    24.1616   Anisotropy =     3.5834

     43  C    Isotropic =    49.8331   Anisotropy =   188.5685

     44  H    Isotropic =    24.6050   Anisotropy =     6.0569

     45  C    Isotropic =    41.6255   Anisotropy =   197.8430

     46  H    Isotropic =    25.2424   Anisotropy =    10.4501

     47  C    Isotropic =    61.1162   Anisotropy =   155.1833

     48  C    Isotropic =    48.5391   Anisotropy =   151.0147

     49  H    Isotropic =    24.6578   Anisotropy =    10.1564

     50  C    Isotropic =    70.1763   Anisotropy =   147.5426

     51  H    Isotropic =    25.4418   Anisotropy =     9.7306

     52  C    Isotropic =    28.5703   Anisotropy =   172.7283

     53  C    Isotropic =    70.6661   Anisotropy =   149.9878

     54  H    Isotropic =    26.0554   Anisotropy =    11.5090

     55  C    Isotropic =    45.0094   Anisotropy =   192.6716

     56  H    Isotropic =    26.8196   Anisotropy =     7.2911

     57  P    Isotropic =   278.3323   Anisotropy =    72.6299

     58  P    Isotropic =   280.7403   Anisotropy =    72.9706

     59  Rh   Isotropic =  -289.7090   Anisotropy =   319.1115

     60  C    Isotropic =    74.5061   Anisotropy =   128.0389

     61  C    Isotropic =    79.4565   Anisotropy =   112.0814

     62  C    Isotropic =    81.1963   Anisotropy =   118.6800

     63  C    Isotropic =    70.9230   Anisotropy =   126.6917

     64  C    Isotropic =   153.8755   Anisotropy =    25.2851

     65  H    Isotropic =    27.5425   Anisotropy =     5.3946

     66  H    Isotropic =    26.4002   Anisotropy =     4.7808

     67  C    Isotropic =   147.8706   Anisotropy =    29.6249

     68  C    Isotropic =   153.9208   Anisotropy =    25.5037

     69  H    Isotropic =    26.7145   Anisotropy =     6.7947

     70  C    Isotropic =   147.8955   Anisotropy =    29.3769

     71  H    Isotropic =    26.5653   Anisotropy =     5.2514

     72  H    Isotropic =    30.1041   Anisotropy =    10.9993

     73  H    Isotropic =    29.8778   Anisotropy =     9.8053

     74  H    Isotropic =    28.9936   Anisotropy =    12.8648

     75  H    Isotropic =    28.8324   Anisotropy =     8.5039

     76  H    Isotropic =    29.7113   Anisotropy =     9.7951

     77  H    Isotropic =    29.6988   Anisotropy =    11.7951

     78  H    Isotropic =    29.3546   Anisotropy =     6.9117

     79  H    Isotropic =    29.3211   Anisotropy =    12.5700

     80  N    Isotropic =   183.7722   Anisotropy =    93.0201

     81  C    Isotropic =   142.8487   Anisotropy =    60.1364

     82  H    Isotropic =    28.9760   Anisotropy =     9.2461

     83  H    Isotropic =    29.2261   Anisotropy =     9.2651

     84  H    Isotropic =    28.8108   Anisotropy =     8.7083

     85  C    Isotropic =   142.8722   Anisotropy =    59.2721

     86  H    Isotropic =    28.9801   Anisotropy =     8.1958

     87  H    Isotropic =    29.2704   Anisotropy =     9.0956

     88  H    Isotropic =    29.1632   Anisotropy =     8.4647

 The electronic state is 1-A.
 Alpha  occ. eigenvalues --  -77.22898 -77.22887 -14.41741 -10.30481 -10.29702
 Alpha  occ. eigenvalues --  -10.29018 -10.28997 -10.28867 -10.28694 -10.28335
 Alpha  occ. eigenvalues --  -10.28288 -10.28212 -10.28144 -10.27849 -10.27810
 Alpha  occ. eigenvalues --  -10.27742 -10.27701 -10.27665 -10.27636 -10.27633
 Alpha  occ. eigenvalues --  -10.27605 -10.27457 -10.27416 -10.27179 -10.27043
 Alpha  occ. eigenvalues --  -10.27030 -10.27029 -10.27022 -10.26997 -10.26982
 Alpha  occ. eigenvalues --  -10.26928 -10.26905 -10.26895 -10.26880 -10.26844
 Alpha  occ. eigenvalues --  -10.26833 -10.26786 -10.26740 -10.26631 -10.26346
 Alpha  occ. eigenvalues --  -10.25925 -10.25612 -10.24861 -10.24799  -6.68846
 Alpha  occ. eigenvalues --   -6.68843  -4.85119  -4.85104  -4.85070  -4.85068
 Alpha  occ. eigenvalues --   -4.84761  -4.84759  -3.30774  -2.07654  -2.07000
 Alpha  occ. eigenvalues --   -2.04262  -1.03258  -0.96298  -0.96054  -0.95507
 Alpha  occ. eigenvalues --   -0.95442  -0.93897  -0.93770  -0.89004  -0.88485
 Alpha  occ. eigenvalues --   -0.87373  -0.86656  -0.85349  -0.84765  -0.84703
 Alpha  occ. eigenvalues --   -0.84639  -0.84566  -0.84282  -0.84242  -0.83409
 Alpha  occ. eigenvalues --   -0.81051  -0.80135  -0.79671  -0.77173  -0.75131
 Alpha  occ. eigenvalues --   -0.74942  -0.71975  -0.70709  -0.70487  -0.70416
 Alpha  occ. eigenvalues --   -0.70178  -0.69919  -0.69722  -0.69606  -0.69030
 Alpha  occ. eigenvalues --   -0.66801  -0.66412  -0.65192  -0.64777  -0.62053
 Alpha  occ. eigenvalues --   -0.61819  -0.61710  -0.61468  -0.60089  -0.59819
 Alpha  occ. eigenvalues --   -0.59333  -0.57348  -0.56620  -0.56404  -0.55668
 Alpha  occ. eigenvalues --   -0.55634  -0.55591  -0.55439  -0.55128  -0.54943
 Alpha  occ. eigenvalues --   -0.54817  -0.54441  -0.54215  -0.54010  -0.53260
 Alpha  occ. eigenvalues --   -0.53030  -0.52969  -0.52229  -0.52116  -0.52039
 Alpha  occ. eigenvalues --   -0.52000  -0.51922  -0.51891  -0.50722  -0.50707
 Alpha  occ. eigenvalues --   -0.50557  -0.49577  -0.48942  -0.48595  -0.48104
 Alpha  occ. eigenvalues --   -0.47908  -0.47606  -0.47293  -0.47048  -0.46776
 Alpha  occ. eigenvalues --   -0.46628  -0.46290  -0.45982  -0.45841  -0.45485
 Alpha  occ. eigenvalues --   -0.45374  -0.45210  -0.44598  -0.44551  -0.44442
 Alpha  occ. eigenvalues --   -0.44293  -0.43159  -0.42891  -0.42761  -0.42618
 Alpha  occ. eigenvalues --   -0.42485  -0.42225  -0.41387  -0.40718  -0.37533
 Alpha  occ. eigenvalues --   -0.37054  -0.36807  -0.36139  -0.35786  -0.35722
 Alpha  occ. eigenvalues --   -0.35372  -0.35355  -0.35102  -0.34777  -0.34072
 Alpha  occ. eigenvalues --   -0.33942  -0.33728  -0.33444  -0.33080  -0.30016
 Alpha  occ. eigenvalues --   -0.27511
 Alpha virt. eigenvalues --   -0.15643  -0.14143  -0.13315  -0.12643  -0.12169
 Alpha virt. eigenvalues --   -0.11623  -0.11216  -0.10522  -0.10455  -0.10274
 Alpha virt. eigenvalues --   -0.08721  -0.08673  -0.08131  -0.07148  -0.06184

 Mulliken charges:
               1
     1  C   -0.705680
     2  H    0.212315
     3  C   -0.166452
     4  C   -0.057138
     5  H    0.165373
     6  C   -0.107719
     7  H    0.133356
     8  C   -0.093348
     9  H    0.136520
    10  C   -0.102982
    11  H    0.128757
    12  C   -0.073587
    13  H    0.139286
    14  C   -0.224820
    15  C   -0.041109
    16  H    0.170401
    17  C   -0.090515
    18  H    0.131695
    19  C   -0.089033
    20  H    0.134979
    21  C   -0.122505
    22  H    0.127437
    23  C   -0.046967
    24  H    0.160796
    25  C   -0.174432
    26  C   -0.036977
    27  H    0.116094
    28  C   -0.117102
    29  H    0.128609
    30  C   -0.092123
    31  H    0.136908
    32  C   -0.086555
    33  H    0.131870
    34  C   -0.101567
    35  H    0.159170
    36  C   -0.350210
    37  C    0.024000
    38  H    0.153907
    39  C   -0.124675
    40  H    0.125973
    41  C   -0.087433
    42  H    0.135731
    43  C   -0.090555
    44  H    0.132155
    45  C    0.015810
    46  H    0.149396
    47  C    0.140343
    48  C   -0.134709
    49  H    0.103447
    50  C   -0.217088
    51  H    0.142027
    52  C    0.161313
    53  C   -0.223941
    54  H    0.141688
    55  C   -0.087607
    56  H    0.147917
    57  P    0.374837
    58  P    0.429810
    59  Rh  -0.678953
    60  C   -0.029045
    61  C   -0.101878
    62  C   -0.019028
    63  C   -0.107338
    64  C   -0.353991
    65  H    0.209730
    66  H    0.196279
    67  C   -0.217565
    68  C   -0.350615
    69  H    0.181381
    70  C   -0.226505
    71  H    0.222314
    72  H    0.167787
    73  H    0.165808
    74  H    0.169944
    75  H    0.128858
    76  H    0.167764
    77  H    0.167678
    78  H    0.132036
    79  H    0.170161
    80  N   -0.120112
    81  C   -0.281328
    82  H    0.144944
    83  H    0.135862
    84  H    0.141530
    85  C   -0.280977
    86  H    0.139057
    87  H    0.137605
    88  H    0.143507
 Sum of Mulliken charges =   1.00000

 Dipole moment (field-independent basis, Debye):
    X=              0.9543    Y=              0.0121    Z=              0.0550  Tot=              0.9559
 Quadrupole moment (field-independent basis, Debye-Ang):
   XX=           -207.1326   YY=           -245.7411   ZZ=           -242.7349
   XY=             -1.5109   XZ=              0.2094   YZ=             -0.6177

 Summary of Natural Population Analysis:

                                       Natural Population
                Natural  -----------------------------------------------
    Atom  No    Charge         Core      Valence    Rydberg      Total
 -----------------------------------------------------------------------
      C    1   -0.72103      1.99928     4.69631    0.02544     6.72103
      H    2    0.25215      0.00000     0.74473    0.00312     0.74785
      C    3   -0.33754      1.99898     4.31490    0.02366     6.33754
      C    4   -0.19414      1.99910     4.17995    0.01509     6.19414
      H    5    0.22412      0.00000     0.77418    0.00171     0.77588
      C    6   -0.18999      1.99920     4.17610    0.01469     6.18999
      H    7    0.22186      0.00000     0.77692    0.00122     0.77814
      C    8   -0.18234      1.99920     4.16842    0.01472     6.18234
      H    9    0.22197      0.00000     0.77685    0.00118     0.77803
      C   10   -0.19349      1.99920     4.17956    0.01473     6.19349
      H   11    0.21996      0.00000     0.77880    0.00124     0.78004
      C   12   -0.19739      1.99909     4.18340    0.01490     6.19739
      H   13    0.20811      0.00000     0.79001    0.00189     0.79189
      C   14   -0.35904      1.99899     4.33525    0.02480     6.35904
      C   15   -0.17832      1.99910     4.16179    0.01743     6.17832
      H   16    0.22687      0.00000     0.77084    0.00228     0.77313
      C   17   -0.19750      1.99919     4.18320    0.01511     6.19750
      H   18    0.22187      0.00000     0.77685    0.00128     0.77813
      C   19   -0.17365      1.99920     4.15994    0.01450     6.17365
      H   20    0.22119      0.00000     0.77767    0.00114     0.77881
      C   21   -0.20247      1.99919     4.18847    0.01480     6.20247
      H   22    0.21971      0.00000     0.77905    0.00124     0.78029
      C   23   -0.18063      1.99911     4.16564    0.01589     6.18063
      H   24    0.21677      0.00000     0.78089    0.00234     0.78323
      C   25   -0.33497      1.99899     4.31279    0.02319     6.33497
      C   26   -0.19733      1.99909     4.18299    0.01526     6.19733
      H   27    0.20969      0.00000     0.78817    0.00214     0.79031
      C   28   -0.19016      1.99920     4.17635    0.01461     6.19016
      H   29    0.22045      0.00000     0.77831    0.00124     0.77955
      C   30   -0.18335      1.99920     4.16950    0.01465     6.18335
      H   31    0.22218      0.00000     0.77664    0.00118     0.77782
      C   32   -0.19036      1.99919     4.17656    0.01461     6.19036
      H   33    0.22202      0.00000     0.77675    0.00123     0.77798
      C   34   -0.19958      1.99909     4.18525    0.01523     6.19958
      H   35    0.21698      0.00000     0.78122    0.00180     0.78302
      C   36   -0.35262      1.99898     4.32939    0.02425     6.35262
      C   37   -0.18251      1.99909     4.16815    0.01527     6.18251
      H   38    0.21977      0.00000     0.77815    0.00209     0.78023
      C   39   -0.20146      1.99919     4.18767    0.01460     6.20146
      H   40    0.21918      0.00000     0.77956    0.00126     0.78082
      C   41   -0.17592      1.99921     4.16215    0.01456     6.17592
      H   42    0.22089      0.00000     0.77793    0.00118     0.77911
      C   43   -0.19567      1.99919     4.18156    0.01491     6.19567
      H   44    0.22165      0.00000     0.77708    0.00127     0.77835
      C   45   -0.17625      1.99909     4.16088    0.01628     6.17625
      H   46    0.22433      0.00000     0.77344    0.00224     0.77567
      C   47   -0.14686      1.99902     4.12302    0.02482     6.14686
      C   48   -0.16726      1.99912     4.15375    0.01439     6.16726
      H   49    0.20066      0.00000     0.79760    0.00174     0.79934
      C   50   -0.26634      1.99913     4.25198    0.01523     6.26634
      H   51    0.21760      0.00000     0.78071    0.00169     0.78240
      C   52    0.18227      1.99903     3.80259    0.01610     5.81773
      C   53   -0.26486      1.99913     4.25099    0.01474     6.26486
      H   54    0.21489      0.00000     0.78307    0.00204     0.78511
      C   55   -0.16489      1.99910     4.15001    0.01578     6.16489
      H   56    0.21570      0.00000     0.78153    0.00277     0.78430
      P   57    1.12574      9.99634     3.82572    0.05220    13.87426
      P   58    1.12239      9.99637     3.83005    0.05119    13.87761
     Rh   59   -0.40810     35.98579     9.39308    0.02923    45.40810
      C   60   -0.16037      1.99906     4.14216    0.01915     6.16037
      C   61   -0.17528      1.99907     4.15629    0.01992     6.17528
      C   62   -0.18525      1.99907     4.16666    0.01952     6.18525
      C   63   -0.15416      1.99907     4.13517    0.01991     6.15416
      C   64   -0.42349      1.99936     4.41236    0.01177     6.42349
      H   65    0.23171      0.00000     0.76629    0.00200     0.76829
      H   66    0.22640      0.00000     0.77162    0.00198     0.77360
      C   67   -0.41795      1.99936     4.40631    0.01229     6.41795
      C   68   -0.42230      1.99936     4.41125    0.01169     6.42230
      H   69    0.22564      0.00000     0.77233    0.00203     0.77436
      C   70   -0.41781      1.99935     4.40595    0.01250     6.41781
      H   71    0.23159      0.00000     0.76617    0.00225     0.76841
      H   72    0.22825      0.00000     0.77026    0.00149     0.77175
      H   73    0.21351      0.00000     0.78450    0.00200     0.78649
      H   74    0.23262      0.00000     0.76544    0.00194     0.76738
      H   75    0.21460      0.00000     0.78393    0.00147     0.78540
      H   76    0.21461      0.00000     0.78344    0.00196     0.78539
      H   77    0.22726      0.00000     0.77123    0.00151     0.77274
      H   78    0.21693      0.00000     0.78152    0.00155     0.78307
      H   79    0.23217      0.00000     0.76591    0.00193     0.76783
      N   80   -0.36229      1.99947     5.34607    0.01675     7.36229
      C   81   -0.39771      1.99935     4.38904    0.00932     6.39771
      H   82    0.19112      0.00000     0.80638    0.00250     0.80888
      H   83    0.21010      0.00000     0.78854    0.00136     0.78990
      H   84    0.19628      0.00000     0.80154    0.00218     0.80372
      C   85   -0.39682      1.99935     4.38836    0.00911     6.39682
      H   86    0.19490      0.00000     0.80282    0.00228     0.80510
      H   87    0.21024      0.00000     0.78839    0.00137     0.78976
      H   88    0.19060      0.00000     0.80680    0.00260     0.80940
 =======================================================================
   * Total *    1.00000    139.94327   229.16104    0.89568   370.00000

 Normal termination of Gaussian 16 at Wed Jan 22 17:48:52 2025.
