 Gaussian 16, Revision B.01,
 Gaussian 16:  ES64L-G16RevB.01 20-Dec-2017

 ------------------------------------------
 # nmr=giao b3lyp/genecp pop=nbo scfcyc=200
 ------------------------------------------

 ---------
 MS-48_SPE
 ---------
 Symbolic Z-matrix:
 Charge =  1 Multiplicity = 1

                         Standard orientation:
 ---------------------------------------------------------------------
 Center     Atomic      Atomic             Coordinates (Angstroms)
 Number     Number       Type             X           Y           Z
 ---------------------------------------------------------------------
      1         15           0       -0.045990   -0.724590    0.287380
      2         15           0       -2.060070    1.136690   -0.322630
      3          6           0        0.538650   -0.669040    2.029320
      4          6           0        1.808850   -0.171489    2.350120
      5          6           0        2.226460   -0.138869    3.675300
      6          6           0        1.387940   -0.597589    4.688560
      7          6           0        0.123601   -1.084800    4.376630
      8          6           0       -0.300899   -1.120010    3.051960
      9          1           0        2.456540    0.196511    1.564190
     10          1           0        3.209930    0.244451    3.917230
     11          1           0        1.720460   -0.573949    5.718870
     12          1           0       -0.532259   -1.439250    5.161880
     13          1           0       -1.289809   -1.488160    2.812050
     14          6           0        1.252611   -1.608210   -0.677750
     15          6           0        1.263921   -1.499790   -2.073100
     16          6           0        2.183211   -2.216909   -2.827970
     17          6           0        3.089191   -3.068679   -2.201830
     18          6           0        3.067061   -3.200969   -0.818690
     19          6           0        2.153961   -2.476869   -0.057330
     20          1           0        0.552061   -0.861910   -2.583460
     21          1           0        2.189771   -2.114129   -3.905890
     22          1           0        3.804211   -3.628659   -2.790990
     23          1           0        3.763871   -3.866729   -0.325020
     24          1           0        2.156191   -2.587609    1.018490
     25          6           0       -2.694700    2.136879    1.087280
     26          6           0       -3.956901    2.733479    0.972540
     27          6           0       -4.522291    3.398469    2.054160
     28          6           0       -3.841891    3.471089    3.265400
     29          6           0       -2.596151    2.866589    3.392170
     30          6           0       -2.027610    2.196240    2.314410
     31          1           0       -4.500431    2.691739    0.037220
     32          1           0       -5.495381    3.861329    1.947720
     33          1           0       -4.281721    3.992849    4.105830
     34          1           0       -2.062361    2.913050    4.333080
     35          1           0       -1.069370    1.714630    2.447670
     36          6           0       -2.465230    2.092909   -1.847520
     37          6           0       -2.670130    1.395089   -3.041810
     38          6           0       -2.881150    2.082819   -4.232580
     39          6           0       -2.890341    3.473279   -4.241030
     40          6           0       -2.681411    4.175279   -3.057350
     41          6           0       -2.467321    3.492279   -1.865620
     42          1           0       -2.659850    0.312289   -3.041670
     43          1           0       -3.043150    1.532299   -5.150810
     44          1           0       -3.059731    4.009309   -5.166320
     45          1           0       -2.684871    5.258079   -3.060550
     46          1           0       -2.310321    4.052399   -0.953180
     47          7           0        2.100160    1.993601   -0.217330
     48          1           0        2.169650    1.897771   -1.226310
     49          6           0       -0.167820    1.053240   -0.343390
     50          1           0        0.007870    0.951100   -1.419540
     51          6           0        0.709920    2.189960    0.170830
     52          1           0        0.671700    2.246950    1.259540
     53          1           0        0.291789    3.140170   -0.203460
     54          6           0        2.985199    3.080601    0.221770
     55          1           0        2.595749    4.064331   -0.083880
     56          1           0        3.000939    3.078311    1.316860
     57          6           0        4.402019    2.915421   -0.321350
     58          1           0        4.379729    2.876861   -1.415350
     59          1           0        4.968379    3.815502   -0.060880
     60          6           0        5.140130    1.684162    0.200320
     61          1           0        4.577250    0.783551   -0.058180
     62          1           0        5.176980    1.726132    1.305640
     63          6           0        7.227000    0.412072    0.037060
     64          1           0        6.658170   -0.483638   -0.235040
     65          1           0        7.347110    0.384072    1.134930
     66         45           0       -2.318469   -1.203151   -0.128030
     67          6           0       -2.223019   -3.411001   -0.653050
     68          6           0       -2.343159   -3.294681    0.716630
     69          6           0       -4.568019   -1.501111    0.110300
     70          6           0       -4.282789   -1.419141   -1.235180
     71          6           0       -3.346239   -3.784701   -1.603350
     72          1           0       -1.219379   -3.518410   -1.049870
     73          1           0       -1.429759   -3.372650    1.297290
     74          6           0       -3.610759   -3.416571    1.526280
     75          6           0       -4.856559   -2.782181    0.869960
     76          1           0       -4.870460   -0.584741    0.606370
     77          6           0       -4.103779   -2.573711   -2.190420
     78          1           0       -4.436440   -0.458241   -1.713520
     79          1           0       -2.921968   -4.358981   -2.428540
     80          1           0       -4.040738   -4.455731   -1.098020
     81          1           0       -3.808948   -4.472361    1.749310
     82          1           0       -3.436659   -2.938971    2.493230
     83          1           0       -5.338949   -3.498161    0.204780
     84          1           0       -5.584499   -2.562261    1.652590
     85          1           0       -3.559569   -2.203311   -3.062130
     86          1           0       -5.081699   -2.898021   -2.567640
     87          6           0        8.596640    0.363423   -0.632770
     88          1           0        9.147150    1.282303   -0.393980
     89          1           0        8.471990    0.343903   -1.717180
     90          6           0        9.431430   -0.840077   -0.201900
     91          1           0        9.549140   -0.826797    0.893420
     92          1           0        8.889181   -1.758307   -0.447670
     93          7           0        6.459690    1.574322   -0.403720
     94          1           0        6.993650    2.419772   -0.227420
     95          7           0       10.703111   -0.870887   -0.927780
     96          1           0       11.279940   -0.074197   -0.680060
     97          1           0       11.232441   -1.704757   -0.701670
 ---------------------------------------------------------------------

 SCF Done:  E(RB3LYP) =  -2512.98187559     A.U. after   18 cycles

      1  P    Isotropic =   294.0595   Anisotropy =    79.9170

      2  P    Isotropic =   296.5998   Anisotropy =    99.7670

      3  C    Isotropic =    51.0268   Anisotropy =   162.4631

      4  C    Isotropic =    41.4066   Anisotropy =   197.5891

      5  C    Isotropic =    48.5839   Anisotropy =   189.2399

      6  C    Isotropic =    44.1827   Anisotropy =   199.4088

      7  C    Isotropic =    49.1454   Anisotropy =   188.1418

      8  C    Isotropic =    40.4273   Anisotropy =   182.7545

      9  H    Isotropic =    23.2723   Anisotropy =     8.8867

     10  H    Isotropic =    23.9513   Anisotropy =     6.7467

     11  H    Isotropic =    23.7573   Anisotropy =     3.8770

     12  H    Isotropic =    23.9240   Anisotropy =     6.5777

     13  H    Isotropic =    23.4062   Anisotropy =     9.3146

     14  C    Isotropic =    42.4670   Anisotropy =   173.8437

     15  C    Isotropic =    50.2935   Anisotropy =   186.9974

     16  C    Isotropic =    49.0777   Anisotropy =   189.5839

     17  C    Isotropic =    46.8901   Anisotropy =   195.5944

     18  C    Isotropic =    48.9829   Anisotropy =   190.1684

     19  C    Isotropic =    47.9937   Anisotropy =   190.2486

     20  H    Isotropic =    24.0682   Anisotropy =    10.1679

     21  H    Isotropic =    24.0799   Anisotropy =     6.5659

     22  H    Isotropic =    24.1370   Anisotropy =     3.3456

     23  H    Isotropic =    24.3668   Anisotropy =     5.9289

     24  H    Isotropic =    24.8573   Anisotropy =    12.2897

     25  C    Isotropic =    48.0392   Anisotropy =   163.7334

     26  C    Isotropic =    47.3887   Anisotropy =   188.1953

     27  C    Isotropic =    48.6701   Anisotropy =   190.2530

     28  C    Isotropic =    46.8955   Anisotropy =   194.7501

     29  C    Isotropic =    49.6876   Anisotropy =   188.6786

     30  C    Isotropic =    47.8116   Anisotropy =   185.9216

     31  H    Isotropic =    24.7373   Anisotropy =    11.6720

     32  H    Isotropic =    24.3196   Anisotropy =     6.0301

     33  H    Isotropic =    24.2275   Anisotropy =     4.0865

     34  H    Isotropic =    24.6133   Anisotropy =     8.3385

     35  H    Isotropic =    25.1498   Anisotropy =     7.3621

     36  C    Isotropic =    42.9166   Anisotropy =   175.0429

     37  C    Isotropic =    44.6109   Anisotropy =   178.9329

     38  C    Isotropic =    48.3346   Anisotropy =   189.0113

     39  C    Isotropic =    44.8744   Anisotropy =   197.9120

     40  C    Isotropic =    48.5551   Anisotropy =   189.9173

     41  C    Isotropic =    45.9908   Anisotropy =   189.2779

     42  H    Isotropic =    23.3643   Anisotropy =     9.8520

     43  H    Isotropic =    23.8572   Anisotropy =     6.9792

     44  H    Isotropic =    23.8898   Anisotropy =     3.8078

     45  H    Isotropic =    24.1693   Anisotropy =     6.3314

     46  H    Isotropic =    24.3455   Anisotropy =    11.9214

     47  N    Isotropic =   191.6793   Anisotropy =    51.0042

     48  H    Isotropic =    32.7639   Anisotropy =     7.0355

     49  C    Isotropic =   106.6584   Anisotropy =    49.5863

     50  H    Isotropic =    27.8609   Anisotropy =     5.4549

     51  C    Isotropic =   133.1513   Anisotropy =    50.8154

     52  H    Isotropic =    28.9152   Anisotropy =     4.0023

     53  H    Isotropic =    29.1868   Anisotropy =     6.7507

     54  C    Isotropic =   132.8619   Anisotropy =    46.7149

     55  H    Isotropic =    29.4001   Anisotropy =     7.9834

     56  H    Isotropic =    29.5602   Anisotropy =     5.9990

     57  C    Isotropic =   148.8562   Anisotropy =    26.6758

     58  H    Isotropic =    30.4962   Anisotropy =     4.5400

     59  H    Isotropic =    30.4848   Anisotropy =     8.7958

     60  C    Isotropic =   130.4496   Anisotropy =    52.7052

     61  H    Isotropic =    29.5710   Anisotropy =    11.3363

     62  H    Isotropic =    29.3730   Anisotropy =     4.7240

     63  C    Isotropic =   130.8908   Anisotropy =    50.4319

     64  H    Isotropic =    29.8811   Anisotropy =     5.6201

     65  H    Isotropic =    29.3834   Anisotropy =     5.1466

     66  Rh   Isotropic =  -304.6354   Anisotropy =   334.5580

     67  C    Isotropic =    75.1287   Anisotropy =   126.5712

     68  C    Isotropic =    79.4259   Anisotropy =   112.6517

     69  C    Isotropic =    75.5786   Anisotropy =   126.3259

     70  C    Isotropic =    77.1874   Anisotropy =   116.5871

     71  C    Isotropic =   153.8512   Anisotropy =    26.0600

     72  H    Isotropic =    27.4308   Anisotropy =     5.1155

     73  H    Isotropic =    26.6602   Anisotropy =     3.7487

     74  C    Isotropic =   148.0054   Anisotropy =    29.5177

     75  C    Isotropic =   154.0519   Anisotropy =    25.8677

     76  H    Isotropic =    27.1541   Anisotropy =     6.6348

     77  C    Isotropic =   148.1634   Anisotropy =    28.7847

     78  H    Isotropic =    26.3205   Anisotropy =     3.7592

     79  H    Isotropic =    29.9228   Anisotropy =    11.0686

     80  H    Isotropic =    29.7824   Anisotropy =     9.8215

     81  H    Isotropic =    29.1318   Anisotropy =    12.8355

     82  H    Isotropic =    29.1150   Anisotropy =     7.8046

     83  H    Isotropic =    29.8208   Anisotropy =     9.8255

     84  H    Isotropic =    29.9769   Anisotropy =    11.5343

     85  H    Isotropic =    28.9151   Anisotropy =     7.7277

     86  H    Isotropic =    29.0739   Anisotropy =    12.9149

     87  C    Isotropic =   146.1430   Anisotropy =    38.2771

     88  H    Isotropic =    30.7819   Anisotropy =     5.2507

     89  H    Isotropic =    29.9665   Anisotropy =     3.9934

     90  C    Isotropic =   138.6329   Anisotropy =    38.5796

     91  H    Isotropic =    28.9452   Anisotropy =     5.8421

     92  H    Isotropic =    29.5413   Anisotropy =     5.6398

     93  N    Isotropic =   194.4175   Anisotropy =    36.0918

     94  H    Isotropic =    32.2380   Anisotropy =    10.1677

     95  N    Isotropic =   226.1805   Anisotropy =    40.8145

     96  H    Isotropic =    31.8646   Anisotropy =    12.3430

     97  H    Isotropic =    31.2833   Anisotropy =    14.9057

 The electronic state is 1-A.
 Alpha  occ. eigenvalues --  -77.23697 -77.23399 -14.39632 -14.35978 -14.34041
 Alpha  occ. eigenvalues --  -10.30894 -10.30223 -10.29622 -10.29620 -10.29344
 Alpha  occ. eigenvalues --  -10.29247 -10.28746 -10.28721 -10.28679 -10.28637
 Alpha  occ. eigenvalues --  -10.28414 -10.28267 -10.28257 -10.28059 -10.28034
 Alpha  occ. eigenvalues --  -10.27984 -10.27779 -10.27740 -10.27671 -10.27645
 Alpha  occ. eigenvalues --  -10.27631 -10.27618 -10.27556 -10.27466 -10.27406
 Alpha  occ. eigenvalues --  -10.27379 -10.27361 -10.27342 -10.27323 -10.27232
 Alpha  occ. eigenvalues --  -10.27178 -10.27085 -10.27080 -10.27030 -10.26967
 Alpha  occ. eigenvalues --  -10.25798 -10.24952 -10.24340 -10.24222 -10.21645
 Alpha  occ. eigenvalues --   -6.69650  -6.69364  -4.85929  -4.85885  -4.85638
 Alpha  occ. eigenvalues --   -4.85591  -4.85545  -4.85275  -3.31225  -2.08118
 Alpha  occ. eigenvalues --   -2.07472  -2.04672  -1.00551  -0.96892  -0.96746
 Alpha  occ. eigenvalues --   -0.96464  -0.96003  -0.95770  -0.94215  -0.93031
 Alpha  occ. eigenvalues --   -0.90075  -0.88940  -0.87783  -0.87143  -0.86086
 Alpha  occ. eigenvalues --   -0.85374  -0.85169  -0.85064  -0.84939  -0.84792
 Alpha  occ. eigenvalues --   -0.84540  -0.83713  -0.80814  -0.80117  -0.77599
 Alpha  occ. eigenvalues --   -0.76731  -0.75533  -0.73175  -0.71765  -0.71240
 Alpha  occ. eigenvalues --   -0.70977  -0.70784  -0.70385  -0.70351  -0.70196
 Alpha  occ. eigenvalues --   -0.69956  -0.69035  -0.67154  -0.66911  -0.65717
 Alpha  occ. eigenvalues --   -0.65630  -0.64207  -0.62481  -0.62187  -0.62002
 Alpha  occ. eigenvalues --   -0.60932  -0.60458  -0.59758  -0.58126  -0.57143
 Alpha  occ. eigenvalues --   -0.56874  -0.56435  -0.56143  -0.55986  -0.55941
 Alpha  occ. eigenvalues --   -0.55715  -0.55471  -0.55319  -0.55168  -0.55089
 Alpha  occ. eigenvalues --   -0.54584  -0.54395  -0.54209  -0.53481  -0.53110
 Alpha  occ. eigenvalues --   -0.52731  -0.52447  -0.52397  -0.52364  -0.52320
 Alpha  occ. eigenvalues --   -0.52226  -0.51863  -0.51226  -0.51143  -0.50608
 Alpha  occ. eigenvalues --   -0.49721  -0.48861  -0.48493  -0.48338  -0.47979
 Alpha  occ. eigenvalues --   -0.47856  -0.47708  -0.47593  -0.47198  -0.47097
 Alpha  occ. eigenvalues --   -0.46755  -0.46011  -0.45940  -0.45807  -0.45285
 Alpha  occ. eigenvalues --   -0.45101  -0.44829  -0.44777  -0.44547  -0.43881
 Alpha  occ. eigenvalues --   -0.43471  -0.43175  -0.42976  -0.42859  -0.42565
 Alpha  occ. eigenvalues --   -0.42323  -0.41896  -0.41620  -0.41183  -0.40459
 Alpha  occ. eigenvalues --   -0.39668  -0.38801  -0.37828  -0.37425  -0.36728
 Alpha  occ. eigenvalues --   -0.36282  -0.36017  -0.35980  -0.35604  -0.35439
 Alpha  occ. eigenvalues --   -0.35288  -0.34859  -0.34404  -0.33989  -0.33346
 Alpha  occ. eigenvalues --   -0.32307  -0.30342  -0.29175  -0.28330
 Alpha virt. eigenvalues --   -0.16213  -0.14620  -0.13805  -0.13102  -0.12395
 Alpha virt. eigenvalues --   -0.12101  -0.11584  -0.10871  -0.10523  -0.09981
 Alpha virt. eigenvalues --   -0.09067  -0.07378  -0.06746  -0.06394  -0.05660

 Mulliken charges:
               1
     1  P    0.386494
     2  P    0.447568
     3  C   -0.384054
     4  C   -0.056415
     5  C   -0.138095
     6  C   -0.071258
     7  C   -0.130451
     8  C    0.018370
     9  H    0.262467
    10  H    0.135756
    11  H    0.136229
    12  H    0.130961
    13  H    0.169355
    14  C   -0.129229
    15  C   -0.088333
    16  C   -0.102128
    17  C   -0.096268
    18  C   -0.103045
    19  C   -0.071500
    20  H    0.137876
    21  H    0.129347
    22  H    0.138306
    23  H    0.132923
    24  H    0.163373
    25  C   -0.112805
    26  C   -0.124081
    27  C   -0.096094
    28  C   -0.089950
    29  C   -0.136947
    30  C   -0.069661
    31  H    0.161471
    32  H    0.134770
    33  H    0.137307
    34  H    0.130195
    35  H    0.167072
    36  C   -0.234304
    37  C   -0.092730
    38  C   -0.105311
    39  C   -0.087936
    40  C   -0.091197
    41  C   -0.089626
    42  H    0.179033
    43  H    0.131179
    44  H    0.139856
    45  H    0.136484
    46  H    0.164721
    47  N   -0.268474
    48  H    0.196594
    49  C   -0.556606
    50  H    0.204039
    51  C   -0.173785
    52  H    0.150050
    53  H    0.133914
    54  C   -0.184956
    55  H    0.116787
    56  H    0.122554
    57  C   -0.214959
    58  H    0.126122
    59  H    0.123165
    60  C   -0.207647
    61  H    0.131755
    62  H    0.074420
    63  C   -0.187960
    64  H    0.104819
    65  H    0.079144
    66  Rh  -0.611115
    67  C   -0.012400
    68  C   -0.129413
    69  C   -0.001531
    70  C   -0.134749
    71  C   -0.345999
    72  H    0.202227
    73  H    0.206008
    74  C   -0.217140
    75  C   -0.344810
    76  H    0.184755
    77  C   -0.225701
    78  H    0.212077
    79  H    0.169322
    80  H    0.166963
    81  H    0.170051
    82  H    0.128771
    83  H    0.166281
    84  H    0.169125
    85  H    0.126489
    86  H    0.171318
    87  C   -0.172654
    88  H    0.087841
    89  H    0.127369
    90  C   -0.189634
    91  H    0.093202
    92  H    0.103316
    93  N   -0.213237
    94  H    0.186567
    95  N   -0.406743
    96  H    0.193979
    97  H    0.200796
 Sum of Mulliken charges =   1.00000

 Dipole moment (field-independent basis, Debye):
    X=             -4.8706    Y=              0.2578    Z=              1.5270  Tot=              5.1109
 Quadrupole moment (field-independent basis, Debye-Ang):
   XX=           -227.9405   YY=           -254.8879   ZZ=           -257.4114
   XY=             -2.2738   XZ=             21.2900   YZ=              0.2892

 Summary of Natural Population Analysis:

                                       Natural Population
                Natural  -----------------------------------------------
    Atom  No    Charge         Core      Valence    Rydberg      Total
 -----------------------------------------------------------------------
      P    1    1.13418      9.99637     3.81753    0.05192    13.86582
      P    2    1.12297      9.99642     3.82934    0.05127    13.87703
      C    3   -0.36308      1.99898     4.33998    0.02412     6.36308
      C    4   -0.19606      1.99909     4.17944    0.01753     6.19606
      C    5   -0.19901      1.99919     4.18471    0.01511     6.19901
      C    6   -0.17380      1.99921     4.16007    0.01453     6.17380
      C    7   -0.20265      1.99919     4.18880    0.01466     6.20265
      C    8   -0.18298      1.99909     4.16829    0.01560     6.18298
      H    9    0.24412      0.00000     0.75298    0.00290     0.75588
      H   10    0.22241      0.00000     0.77621    0.00138     0.77759
      H   11    0.22224      0.00000     0.77660    0.00117     0.77776
      H   12    0.22140      0.00000     0.77736    0.00125     0.77860
      H   13    0.22069      0.00000     0.77689    0.00242     0.77931
      C   14   -0.33516      1.99898     4.31175    0.02443     6.33516
      C   15   -0.19862      1.99909     4.18460    0.01494     6.19862
      C   16   -0.19113      1.99920     4.17721    0.01472     6.19113
      C   17   -0.18228      1.99920     4.16834    0.01474     6.18228
      C   18   -0.18888      1.99920     4.17496    0.01473     6.18888
      C   19   -0.19482      1.99909     4.18066    0.01506     6.19482
      H   20    0.20626      0.00000     0.79178    0.00196     0.79374
      H   21    0.22063      0.00000     0.77814    0.00124     0.77937
      H   22    0.22278      0.00000     0.77605    0.00117     0.77722
      H   23    0.22172      0.00000     0.77705    0.00123     0.77828
      H   24    0.22281      0.00000     0.77546    0.00173     0.77719
      C   25   -0.34307      1.99898     4.32048    0.02361     6.34307
      C   26   -0.19989      1.99910     4.18565    0.01514     6.19989
      C   27   -0.19083      1.99920     4.17697    0.01466     6.19083
      C   28   -0.18233      1.99920     4.16848    0.01464     6.18233
      C   29   -0.19049      1.99920     4.17676    0.01453     6.19049
      C   30   -0.19521      1.99909     4.18105    0.01507     6.19521
      H   31    0.21985      0.00000     0.77838    0.00177     0.78015
      H   32    0.22255      0.00000     0.77622    0.00123     0.77745
      H   33    0.22248      0.00000     0.77635    0.00117     0.77752
      H   34    0.22088      0.00000     0.77787    0.00125     0.77912
      H   35    0.21526      0.00000     0.78247    0.00227     0.78474
      C   36   -0.34513      1.99899     4.32267    0.02347     6.34513
      C   37   -0.19681      1.99910     4.18215    0.01556     6.19681
      C   38   -0.19519      1.99920     4.18134    0.01465     6.19519
      C   39   -0.17594      1.99921     4.16219    0.01454     6.17594
      C   40   -0.19119      1.99920     4.17740    0.01459     6.19119
      C   41   -0.19366      1.99910     4.17843    0.01613     6.19366
      H   42    0.21767      0.00000     0.78000    0.00233     0.78233
      H   43    0.22150      0.00000     0.77727    0.00123     0.77850
      H   44    0.22357      0.00000     0.77526    0.00117     0.77643
      H   45    0.22354      0.00000     0.77524    0.00122     0.77646
      H   46    0.22275      0.00000     0.77524    0.00201     0.77725
      N   47   -0.61215      1.99957     5.59366    0.01892     7.61215
      H   48    0.34927      0.00000     0.64677    0.00397     0.65073
      C   49   -0.73756      1.99937     4.71503    0.02316     6.73756
      H   50    0.25254      0.00000     0.74514    0.00232     0.74746
      C   51   -0.23240      1.99930     4.21526    0.01783     6.23240
      H   52    0.19946      0.00000     0.79753    0.00301     0.80054
      H   53    0.17852      0.00000     0.81706    0.00442     0.82148
      C   54   -0.20220      1.99938     4.19090    0.01192     6.20220
      H   55    0.16675      0.00000     0.83030    0.00295     0.83325
      H   56    0.18158      0.00000     0.81612    0.00231     0.81842
      C   57   -0.39463      1.99941     4.38380    0.01142     6.39463
      H   58    0.20342      0.00000     0.79439    0.00219     0.79658
      H   59    0.20466      0.00000     0.79378    0.00156     0.79534
      C   60   -0.20430      1.99939     4.19159    0.01332     6.20430
      H   61    0.18663      0.00000     0.81092    0.00245     0.81337
      H   62    0.14394      0.00000     0.85228    0.00377     0.85606
      C   63   -0.19951      1.99938     4.18718    0.01295     6.19951
      H   64    0.17562      0.00000     0.82169    0.00269     0.82438
      H   65    0.14770      0.00000     0.84823    0.00407     0.85230
     Rh   66   -0.39119     35.98593     9.37629    0.02897    45.39119
      C   67   -0.16059      1.99907     4.14236    0.01916     6.16059
      C   68   -0.17416      1.99907     4.15528    0.01982     6.17416
      C   69   -0.16784      1.99907     4.14943    0.01934     6.16784
      C   70   -0.16915      1.99907     4.15002    0.02006     6.16915
      C   71   -0.42331      1.99936     4.41218    0.01176     6.42331
      H   72    0.23224      0.00000     0.76578    0.00198     0.76776
      H   73    0.22635      0.00000     0.77166    0.00199     0.77365
      C   74   -0.41735      1.99935     4.40532    0.01268     6.41735
      C   75   -0.42314      1.99936     4.41206    0.01172     6.42314
      H   76    0.22967      0.00000     0.76827    0.00205     0.77033
      C   77   -0.41748      1.99935     4.40546    0.01266     6.41748
      H   78    0.22673      0.00000     0.77112    0.00215     0.77327
      H   79    0.22892      0.00000     0.76961    0.00147     0.77108
      H   80    0.21462      0.00000     0.78341    0.00197     0.78538
      H   81    0.23311      0.00000     0.76495    0.00194     0.76689
      H   82    0.21275      0.00000     0.78564    0.00161     0.78725
      H   83    0.21452      0.00000     0.78350    0.00198     0.78548
      H   84    0.22926      0.00000     0.76926    0.00148     0.77074
      H   85    0.21219      0.00000     0.78621    0.00160     0.78781
      H   86    0.23285      0.00000     0.76520    0.00196     0.76715
      C   87   -0.39530      1.99941     4.38264    0.01325     6.39530
      H   88    0.18278      0.00000     0.81517    0.00205     0.81722
      H   89    0.21480      0.00000     0.78295    0.00225     0.78520
      C   90   -0.20218      1.99939     4.18889    0.01389     6.20218
      H   91    0.15270      0.00000     0.84503    0.00226     0.84730
      H   92    0.17869      0.00000     0.81950    0.00180     0.82131
      N   93   -0.59647      1.99956     5.57819    0.01872     7.59647
      H   94    0.34126      0.00000     0.65460    0.00414     0.65874
      N   95   -0.80890      1.99963     5.79353    0.01574     7.80890
      H   96    0.34222      0.00000     0.65491    0.00287     0.65778
      H   97    0.35001      0.00000     0.64761    0.00238     0.64999
 =======================================================================
   * Total *    1.00000    141.94529   243.11973    0.93498   386.00000

 Normal termination of Gaussian 16 at Wed Jan 22 18:34:19 2025.
