 Gaussian 16, Revision B.01,
 Gaussian 16:  ES64L-G16RevB.01 20-Dec-2017

 ------------------------------------------
 # nmr=giao b3lyp/genecp pop=nbo scfcyc=200
 ------------------------------------------

 ---------
 MS-44_SPE
 ---------
 Symbolic Z-matrix:
 Charge =  1 Multiplicity = 1

                         Standard orientation:
 ---------------------------------------------------------------------
 Center     Atomic      Atomic             Coordinates (Angstroms)
 Number     Number       Type             X           Y           Z
 ---------------------------------------------------------------------
      1         15           0       -0.552360    1.409790    0.019150
      2         15           0        0.071609   -1.328480    0.157900
      3          6           0        1.004970    0.333910    0.076100
      4          6           0       -0.179899    2.835680   -1.087020
      5          6           0       -1.200899    3.771531   -1.297690
      6          6           0       -1.002288    4.849821   -2.149700
      7          6           0        0.215422    5.006430   -2.806670
      8          6           0        1.233741    4.083890   -2.600980
      9          6           0        1.038811    3.000910   -1.747590
     10          6           0       -0.910510    2.171141    1.652780
     11          6           0       -1.892570    1.597751    2.464350
     12          6           0       -2.194360    2.158851    3.700850
     13          6           0       -1.523909    3.299391    4.128100
     14          6           0       -0.549699    3.879120    3.318930
     15          6           0       -0.241429    3.320010    2.086530
     16          6           0        1.069298   -2.463330   -0.897490
     17          6           0        0.812208   -2.494340   -2.272050
     18          6           0        1.584378   -3.288711   -3.113150
     19          6           0        2.614538   -4.061911   -2.587280
     20          6           0        2.876868   -4.033221   -1.220640
     21          6           0        2.111888   -3.236441   -0.376510
     22          6           0        0.059559   -2.088710    1.832470
     23          6           0        0.241249   -1.360270    3.010890
     24          6           0        0.096849   -1.990320    4.244130
     25          6           0       -0.238912   -3.336670    4.316140
     26          6           0       -0.432382   -4.063670    3.144610
     27          6           0       -0.288382   -3.445480    1.909650
     28          1           0        1.306400    0.310370   -0.971840
     29          1           0       -2.147829    3.674181   -0.779870
     30          1           0       -1.797418    5.569461   -2.298780
     31          1           0        0.370062    5.847770   -3.470150
     32          1           0        2.187091    4.205429   -3.099600
     33          1           0        1.855291    2.307769   -1.596320
     34          1           0       -2.418220    0.712831    2.126440
     35          1           0       -2.956300    1.708961    4.324930
     36          1           0       -1.762259    3.740671    5.087800
     37          1           0       -0.027008    4.767440    3.650350
     38          1           0        0.517701    3.779490    1.467590
     39          1           0        0.006869   -1.896990   -2.682730
     40          1           0        1.375578   -3.310150   -4.175440
     41          1           0        3.210357   -4.687321   -3.240150
     42          1           0        3.680047   -4.631361   -0.809020
     43          1           0        2.327268   -3.222351    0.683730
     44          1           0        0.512419   -0.315270    2.980380
     45          1           0        0.253559   -1.419620    5.150820
     46          1           0       -0.347312   -3.820240    5.278790
     47          1           0       -0.692383   -5.113790    3.190870
     48          1           0       -0.432862   -4.029420    1.008760
     49         45           0       -1.947841   -0.388599   -0.611340
     50          6           0       -2.940701   -2.188889   -1.617360
     51          6           0       -3.318951   -2.143758   -0.291970
     52          6           0       -3.971560    0.656892   -0.809870
     53          6           0       -3.328100    0.679272   -2.029580
     54          6           0       -3.787431   -1.733338   -2.791510
     55          1           0       -2.109422   -2.839079   -1.865110
     56          1           0       -2.773642   -2.775059    0.402250
     57          6           0       -4.603371   -1.581058    0.264950
     58          6           0       -5.093611   -0.287178   -0.420610
     59          1           0       -3.862170    1.532592   -0.179280
     60          6           0       -3.555591   -0.259618   -3.188990
     61          1           0       -2.781700    1.580641   -2.287270
     62          1           0       -3.554772   -2.363128   -3.651870
     63          1           0       -4.840771   -1.906638   -2.571980
     64          1           0       -5.388722   -2.345907    0.217110
     65          1           0       -4.445761   -1.386298    1.327970
     66          1           0       -5.693111   -0.525907   -1.298840
     67          1           0       -5.762880    0.234093    0.265750
     68          1           0       -2.680401   -0.197619   -3.839490
     69          1           0       -4.399480    0.099322   -3.791560
     70          6           0        3.573870    0.589189    0.424190
     71          6           0        3.890890    0.061298   -0.832980
     72          6           0        4.623940    1.048858    1.235980
     73          6           0        5.210150   -0.000222   -1.262640
     74          1           0        3.123079   -0.332081   -1.485900
     75          6           0        5.933270    0.989728    0.798850
     76          1           0        4.385730    1.450328    2.211810
     77          6           0        6.253840    0.466277   -0.461500
     78          1           0        5.432209   -0.420482   -2.236200
     79          1           0        6.726750    1.352597    1.441920
     80          6           0        2.192290    0.688549    0.967090
     81          8           0        1.989330    1.066619    2.107160
     82          6           0        7.680670    0.424237   -0.933850
     83          1           0        7.789549   -0.186603   -1.829760
     84          1           0        8.038990    1.430207   -1.170130
     85          1           0        8.340080    0.021906   -0.162290
 ---------------------------------------------------------------------

 SCF Done:  E(RB3LYP) =  -2455.42621168     A.U. after   16 cycles

      1  P    Isotropic =   295.0288   Anisotropy =    55.4130

      2  P    Isotropic =   284.5526   Anisotropy =    80.0333

      3  C    Isotropic =   112.8319   Anisotropy =    49.0589

      4  C    Isotropic =    44.0459   Anisotropy =   170.1835

      5  C    Isotropic =    47.2190   Anisotropy =   187.6453

      6  C    Isotropic =    48.2095   Anisotropy =   191.5647

      7  C    Isotropic =    46.6766   Anisotropy =   196.0530

      8  C    Isotropic =    49.3590   Anisotropy =   189.1086

      9  C    Isotropic =    50.4622   Anisotropy =   183.7904

     10  C    Isotropic =    46.9321   Anisotropy =   163.9888

     11  C    Isotropic =    40.8760   Anisotropy =   179.8463

     12  C    Isotropic =    50.7521   Anisotropy =   184.8875

     13  C    Isotropic =    44.8606   Anisotropy =   198.4045

     14  C    Isotropic =    49.2425   Anisotropy =   188.1748

     15  C    Isotropic =    41.2490   Anisotropy =   196.2534

     16  C    Isotropic =    43.1206   Anisotropy =   176.2501

     17  C    Isotropic =    44.1189   Anisotropy =   180.6075

     18  C    Isotropic =    48.6981   Anisotropy =   188.9543

     19  C    Isotropic =    44.9636   Anisotropy =   198.7945

     20  C    Isotropic =    48.6971   Anisotropy =   191.3859

     21  C    Isotropic =    44.5247   Anisotropy =   196.5670

     22  C    Isotropic =    47.4532   Anisotropy =   156.2011

     23  C    Isotropic =    44.7036   Anisotropy =   199.9284

     24  C    Isotropic =    48.8199   Anisotropy =   191.4125

     25  C    Isotropic =    46.5620   Anisotropy =   196.3124

     26  C    Isotropic =    49.7943   Anisotropy =   188.9249

     27  C    Isotropic =    48.4708   Anisotropy =   186.5774

     28  H    Isotropic =    25.6275   Anisotropy =     7.0060

     29  H    Isotropic =    24.8975   Anisotropy =    11.1716

     30  H    Isotropic =    24.2697   Anisotropy =     6.4983

     31  H    Isotropic =    24.1820   Anisotropy =     3.6091

     32  H    Isotropic =    24.4250   Anisotropy =     7.4577

     33  H    Isotropic =    24.5332   Anisotropy =     8.8914

     34  H    Isotropic =    23.0097   Anisotropy =     9.0110

     35  H    Isotropic =    24.1367   Anisotropy =     6.9761

     36  H    Isotropic =    23.9097   Anisotropy =     3.7243

     37  H    Isotropic =    24.2364   Anisotropy =     6.2570

     38  H    Isotropic =    24.8544   Anisotropy =    12.0100

     39  H    Isotropic =    23.2618   Anisotropy =    10.0065

     40  H    Isotropic =    23.8856   Anisotropy =     6.9017

     41  H    Isotropic =    23.9487   Anisotropy =     3.2284

     42  H    Isotropic =    24.4383   Anisotropy =     5.7536

     43  H    Isotropic =    24.7376   Anisotropy =    11.0198

     44  H    Isotropic =    23.7032   Anisotropy =     7.4413

     45  H    Isotropic =    24.3866   Anisotropy =     7.3270

     46  H    Isotropic =    24.1476   Anisotropy =     3.6148

     47  H    Isotropic =    24.3197   Anisotropy =     6.2269

     48  H    Isotropic =    24.8761   Anisotropy =    11.3013

     49  Rh   Isotropic =  -307.9054   Anisotropy =   341.5675

     50  C    Isotropic =    79.1901   Anisotropy =   120.2560

     51  C    Isotropic =    73.3868   Anisotropy =   121.4829

     52  C    Isotropic =    80.3444   Anisotropy =   120.8723

     53  C    Isotropic =    72.2474   Anisotropy =   123.7907

     54  C    Isotropic =   153.9800   Anisotropy =    24.8067

     55  H    Isotropic =    26.8659   Anisotropy =     5.6564

     56  H    Isotropic =    26.6288   Anisotropy =     4.1594

     57  C    Isotropic =   148.0351   Anisotropy =    28.7297

     58  C    Isotropic =   153.8776   Anisotropy =    25.1486

     59  H    Isotropic =    26.8107   Anisotropy =     5.7400

     60  C    Isotropic =   147.8828   Anisotropy =    29.4396

     61  H    Isotropic =    26.5091   Anisotropy =     4.8487

     62  H    Isotropic =    29.7590   Anisotropy =    11.4713

     63  H    Isotropic =    29.7342   Anisotropy =     9.6653

     64  H    Isotropic =    29.2095   Anisotropy =    12.5763

     65  H    Isotropic =    29.2423   Anisotropy =     7.1378

     66  H    Isotropic =    29.7735   Anisotropy =     9.8287

     67  H    Isotropic =    29.8015   Anisotropy =    11.3676

     68  H    Isotropic =    29.0517   Anisotropy =     7.1900

     69  H    Isotropic =    29.1492   Anisotropy =    12.5636

     70  C    Isotropic =    45.6617   Anisotropy =   167.1696

     71  C    Isotropic =    50.6527   Anisotropy =   179.8262

     72  C    Isotropic =    47.9725   Anisotropy =   199.5340

     73  C    Isotropic =    50.6520   Anisotropy =   160.3610

     74  H    Isotropic =    25.3760   Anisotropy =     8.9771

     75  C    Isotropic =    47.8993   Anisotropy =   173.5988

     76  H    Isotropic =    23.5495   Anisotropy =     9.8558

     77  C    Isotropic =    26.9154   Anisotropy =   217.8528

     78  H    Isotropic =    24.9742   Anisotropy =     9.9923

     79  H    Isotropic =    24.3322   Anisotropy =     7.2508

     80  C    Isotropic =    -8.6600   Anisotropy =   139.9573

     81  O    Isotropic =  -291.1656   Anisotropy =   966.4128

     82  C    Isotropic =   161.5505   Anisotropy =    41.9235

     83  H    Isotropic =    29.8443   Anisotropy =     6.9420

     84  H    Isotropic =    29.2955   Anisotropy =     9.3211

     85  H    Isotropic =    29.4045   Anisotropy =     8.6751

 The electronic state is 1-A.
 Alpha  occ. eigenvalues --  -77.24378 -77.23871 -19.21018 -10.36598 -10.31407
 Alpha  occ. eigenvalues --  -10.29684 -10.29538 -10.29323 -10.28933 -10.28903
 Alpha  occ. eigenvalues --  -10.28773 -10.28693 -10.28656 -10.28555 -10.28323
 Alpha  occ. eigenvalues --  -10.28233 -10.28149 -10.28034 -10.27854 -10.27823
 Alpha  occ. eigenvalues --  -10.27812 -10.27799 -10.27738 -10.27658 -10.27505
 Alpha  occ. eigenvalues --  -10.27416 -10.27401 -10.27375 -10.27352 -10.27321
 Alpha  occ. eigenvalues --  -10.27295 -10.27167 -10.27128 -10.27097 -10.26976
 Alpha  occ. eigenvalues --  -10.26843 -10.26832 -10.26749 -10.26699 -10.26666
 Alpha  occ. eigenvalues --  -10.26546 -10.26469 -10.26182 -10.24819  -6.70263
 Alpha  occ. eigenvalues --   -6.69796  -4.86580  -4.86472  -4.86155  -4.86105
 Alpha  occ. eigenvalues --   -4.85997  -4.85699  -3.31427  -2.08322  -2.07680
 Alpha  occ. eigenvalues --   -2.04875  -1.14466  -0.96810  -0.96451  -0.95773
 Alpha  occ. eigenvalues --   -0.95676  -0.95444  -0.94281  -0.90290  -0.89009
 Alpha  occ. eigenvalues --   -0.87857  -0.87560  -0.87122  -0.85473  -0.85242
 Alpha  occ. eigenvalues --   -0.84880  -0.84632  -0.84509  -0.84435  -0.84276
 Alpha  occ. eigenvalues --   -0.84025  -0.80193  -0.79034  -0.77663  -0.75550
 Alpha  occ. eigenvalues --   -0.74564  -0.71414  -0.71055  -0.70712  -0.70500
 Alpha  occ. eigenvalues --   -0.70400  -0.70326  -0.70022  -0.69918  -0.69730
 Alpha  occ. eigenvalues --   -0.67066  -0.66756  -0.65698  -0.64093  -0.62622
 Alpha  occ. eigenvalues --   -0.62337  -0.61934  -0.61633  -0.60148  -0.59875
 Alpha  occ. eigenvalues --   -0.59771  -0.56955  -0.56854  -0.56275  -0.56201
 Alpha  occ. eigenvalues --   -0.56120  -0.55817  -0.55575  -0.55385  -0.55158
 Alpha  occ. eigenvalues --   -0.54843  -0.54696  -0.54406  -0.53691  -0.53479
 Alpha  occ. eigenvalues --   -0.53146  -0.52883  -0.52730  -0.52488  -0.52444
 Alpha  occ. eigenvalues --   -0.52289  -0.51850  -0.51737  -0.51410  -0.51155
 Alpha  occ. eigenvalues --   -0.51078  -0.50357  -0.49581  -0.48663  -0.48145
 Alpha  occ. eigenvalues --   -0.47984  -0.47719  -0.47245  -0.47100  -0.47027
 Alpha  occ. eigenvalues --   -0.46651  -0.46052  -0.45831  -0.45712  -0.45212
 Alpha  occ. eigenvalues --   -0.45146  -0.44735  -0.44567  -0.44442  -0.44264
 Alpha  occ. eigenvalues --   -0.43408  -0.43344  -0.43213  -0.43118  -0.42975
 Alpha  occ. eigenvalues --   -0.42744  -0.42559  -0.41273  -0.38022  -0.37648
 Alpha  occ. eigenvalues --   -0.36909  -0.36439  -0.36185  -0.36120  -0.35904
 Alpha  occ. eigenvalues --   -0.35518  -0.35021  -0.34904  -0.34856  -0.34717
 Alpha  occ. eigenvalues --   -0.34215  -0.34145  -0.33773  -0.33437  -0.30527
 Alpha virt. eigenvalues --   -0.16709  -0.16150  -0.14716  -0.13572  -0.12768
 Alpha virt. eigenvalues --   -0.12357  -0.11979  -0.11582  -0.10802  -0.10440
 Alpha virt. eigenvalues --   -0.10084  -0.09891  -0.09083  -0.07402  -0.07220

 Mulliken charges:
               1
     1  P    0.413374
     2  P    0.461046
     3  C   -0.627642
     4  C   -0.196910
     5  C   -0.090454
     6  C   -0.095752
     7  C   -0.081304
     8  C   -0.133874
     9  C   -0.003877
    10  C   -0.270669
    11  C   -0.034231
    12  C   -0.103711
    13  C   -0.094373
    14  C   -0.088442
    15  C    0.008925
    16  C   -0.302524
    17  C   -0.073623
    18  C   -0.110754
    19  C   -0.085907
    20  C   -0.101932
    21  C   -0.024995
    22  C   -0.080911
    23  C   -0.090693
    24  C   -0.132804
    25  C   -0.096025
    26  C   -0.088114
    27  C   -0.156542
    28  H    0.230994
    29  H    0.162032
    30  H    0.132909
    31  H    0.138798
    32  H    0.130791
    33  H    0.134580
    34  H    0.181555
    35  H    0.127862
    36  H    0.134606
    37  H    0.132645
    38  H    0.140194
    39  H    0.186032
    40  H    0.131761
    41  H    0.139264
    42  H    0.136034
    43  H    0.163181
    44  H    0.206540
    45  H    0.132852
    46  H    0.134750
    47  H    0.132897
    48  H    0.168552
    49  Rh  -0.709710
    50  C   -0.048305
    51  C   -0.093089
    52  C   -0.040202
    53  C   -0.086361
    54  C   -0.346927
    55  H    0.204962
    56  H    0.204932
    57  C   -0.231875
    58  C   -0.357198
    59  H    0.188847
    60  C   -0.225244
    61  H    0.208399
    62  H    0.167497
    63  H    0.167592
    64  H    0.172156
    65  H    0.137671
    66  H    0.167761
    67  H    0.170036
    68  H    0.130850
    69  H    0.171804
    70  C   -0.180793
    71  C    0.003134
    72  C   -0.089473
    73  C   -0.159539
    74  H    0.155233
    75  C   -0.104405
    76  H    0.142445
    77  C    0.116749
    78  H    0.121524
    79  H    0.132377
    80  C    0.302868
    81  O   -0.298758
    82  C   -0.433918
    83  H    0.139478
    84  H    0.156004
    85  H    0.147365
 Sum of Mulliken charges =   1.00000

 Dipole moment (field-independent basis, Debye):
    X=             -0.2156    Y=             -0.8415    Z=             -2.4629  Tot=              2.6116
 Quadrupole moment (field-independent basis, Debye-Ang):
   XX=           -214.8938   YY=           -238.5829   ZZ=           -246.9349
   XY=             -1.3928   XZ=             -8.1752   YZ=             -0.8446

 Summary of Natural Population Analysis:

                                       Natural Population
                Natural  -----------------------------------------------
    Atom  No    Charge         Core      Valence    Rydberg      Total
 -----------------------------------------------------------------------
      P    1    1.14500      9.99638     3.80608    0.05254    13.85500
      P    2    1.15030      9.99634     3.80140    0.05196    13.84970
      C    3   -0.84377      1.99928     4.81946    0.02503     6.84377
      C    4   -0.34034      1.99899     4.31824    0.02310     6.34034
      C    5   -0.19663      1.99909     4.18226    0.01529     6.19663
      C    6   -0.18856      1.99920     4.17481    0.01456     6.18856
      C    7   -0.18116      1.99920     4.16737    0.01459     6.18116
      C    8   -0.18812      1.99920     4.17430    0.01462     6.18812
      C    9   -0.20017      1.99909     4.18579    0.01530     6.20017
      C   10   -0.34787      1.99897     4.32379    0.02510     6.34787
      C   11   -0.18217      1.99909     4.16766    0.01542     6.18217
      C   12   -0.20249      1.99919     4.18869    0.01461     6.20249
      C   13   -0.17178      1.99921     4.15810    0.01448     6.17178
      C   14   -0.19276      1.99919     4.17914    0.01443     6.19276
      C   15   -0.16345      1.99908     4.14833    0.01603     6.16345
      C   16   -0.35453      1.99899     4.33156    0.02398     6.35453
      C   17   -0.19708      1.99909     4.18269    0.01529     6.19708
      C   18   -0.19797      1.99920     4.18411    0.01467     6.19797
      C   19   -0.17660      1.99921     4.16282    0.01457     6.17660
      C   20   -0.19044      1.99920     4.17668    0.01456     6.19044
      C   21   -0.18448      1.99909     4.16956    0.01583     6.18448
      C   22   -0.35505      1.99898     4.33221    0.02385     6.35505
      C   23   -0.19415      1.99909     4.17950    0.01555     6.19415
      C   24   -0.18879      1.99920     4.17522    0.01438     6.18879
      C   25   -0.18074      1.99920     4.16694    0.01460     6.18074
      C   26   -0.19555      1.99919     4.18160    0.01475     6.19555
      C   27   -0.20402      1.99909     4.18978    0.01515     6.20402
      H   28    0.26368      0.00000     0.73352    0.00280     0.73632
      H   29    0.21641      0.00000     0.78172    0.00187     0.78359
      H   30    0.22299      0.00000     0.77579    0.00122     0.77701
      H   31    0.22316      0.00000     0.77567    0.00117     0.77684
      H   32    0.22191      0.00000     0.77686    0.00123     0.77809
      H   33    0.21114      0.00000     0.78667    0.00219     0.78886
      H   34    0.22159      0.00000     0.77625    0.00216     0.77841
      H   35    0.21936      0.00000     0.77938    0.00126     0.78064
      H   36    0.22092      0.00000     0.77789    0.00119     0.77908
      H   37    0.22201      0.00000     0.77676    0.00123     0.77799
      H   38    0.22031      0.00000     0.77776    0.00192     0.77969
      H   39    0.22172      0.00000     0.77632    0.00196     0.77828
      H   40    0.22185      0.00000     0.77691    0.00124     0.77815
      H   41    0.22306      0.00000     0.77577    0.00117     0.77694
      H   42    0.22417      0.00000     0.77460    0.00123     0.77583
      H   43    0.22714      0.00000     0.77099    0.00187     0.77286
      H   44    0.24710      0.00000     0.75045    0.00245     0.75290
      H   45    0.22217      0.00000     0.77660    0.00122     0.77783
      H   46    0.22149      0.00000     0.77734    0.00118     0.77851
      H   47    0.22156      0.00000     0.77719    0.00124     0.77844
      H   48    0.21690      0.00000     0.78126    0.00184     0.78310
     Rh   49   -0.39913     35.98557     9.38404    0.02952    45.39913
      C   50   -0.17892      1.99906     4.16042    0.01945     6.17892
      C   51   -0.15531      1.99907     4.13647    0.01977     6.15531
      C   52   -0.17723      1.99906     4.15863    0.01953     6.17723
      C   53   -0.15731      1.99907     4.13845    0.01979     6.15731
      C   54   -0.42349      1.99936     4.41231    0.01182     6.42349
      H   55    0.22603      0.00000     0.77181    0.00217     0.77397
      H   56    0.22938      0.00000     0.76843    0.00219     0.77062
      C   57   -0.41981      1.99935     4.40820    0.01226     6.41981
      C   58   -0.42366      1.99936     4.41250    0.01180     6.42366
      H   59    0.22602      0.00000     0.77185    0.00212     0.77398
      C   60   -0.41808      1.99935     4.40610    0.01262     6.41808
      H   61    0.23117      0.00000     0.76654    0.00229     0.76883
      H   62    0.22736      0.00000     0.77112    0.00151     0.77264
      H   63    0.21493      0.00000     0.78306    0.00201     0.78507
      H   64    0.23413      0.00000     0.76398    0.00190     0.76587
      H   65    0.21970      0.00000     0.77885    0.00145     0.78030
      H   66    0.21469      0.00000     0.78335    0.00196     0.78531
      H   67    0.22877      0.00000     0.76975    0.00148     0.77123
      H   68    0.21582      0.00000     0.78263    0.00155     0.78418
      H   69    0.23367      0.00000     0.76443    0.00191     0.76633
      C   70   -0.18270      1.99899     4.16499    0.01873     6.18270
      C   71   -0.16430      1.99913     4.15036    0.01480     6.16430
      C   72   -0.13287      1.99915     4.11856    0.01516     6.13287
      C   73   -0.21011      1.99911     4.19597    0.01503     6.21011
      H   74    0.20646      0.00000     0.79109    0.00245     0.79354
      C   75   -0.20175      1.99911     4.18908    0.01355     6.20175
      H   76    0.23640      0.00000     0.76198    0.00162     0.76360
      C   77    0.03578      1.99915     3.95098    0.01409     5.96422
      H   78    0.21282      0.00000     0.78544    0.00174     0.78718
      H   79    0.21771      0.00000     0.78096    0.00134     0.78229
      C   80    0.52513      1.99921     3.43642    0.03923     5.47487
      O   81   -0.52903      1.99978     6.51643    0.01282     8.52903
      C   82   -0.62169      1.99941     4.61491    0.00738     6.62169
      H   83    0.21735      0.00000     0.78152    0.00113     0.78265
      H   84    0.22890      0.00000     0.76976    0.00134     0.77110
      H   85    0.22591      0.00000     0.77281    0.00128     0.77409
 =======================================================================
   * Total *    1.00000    139.94333   227.15798    0.89869   368.00000

 Normal termination of Gaussian 16 at Wed Jan 22 17:38:18 2025.
