 Gaussian 16, Revision B.01,
 Gaussian 16:  ES64L-G16RevB.01 20-Dec-2017

 ------------------------------------------
 # nmr=giao b3lyp/genecp pop=nbo scfcyc=200
 ------------------------------------------

 ---------
 MS-40_SPE
 ---------
 Symbolic Z-matrix:
 Charge =  1 Multiplicity = 1

                         Standard orientation:
 ---------------------------------------------------------------------
 Center     Atomic      Atomic             Coordinates (Angstroms)
 Number     Number       Type             X           Y           Z
 ---------------------------------------------------------------------
      1         15           0       -0.097240   -1.179560    0.266260
      2         15           0        1.085090    1.367950    0.253040
      3          6           0        0.289819   -2.228790    1.727120
      4          6           0        1.588829   -2.718001    1.893210
      5          1           0        2.350909   -2.470041    1.165390
      6          6           0        1.906529   -3.512971    2.990430
      7          1           0        2.914729   -3.889881    3.108550
      8          6           0        0.929249   -3.824930    3.928770
      9          1           0        1.174339   -4.447350    4.780350
     10          6           0       -0.366271   -3.337710    3.771820
     11          1           0       -1.128121   -3.579540    4.502580
     12          6           0       -0.689651   -2.542680    2.678750
     13          1           0       -1.694281   -2.156370    2.563850
     14          6           0       -1.591171   -1.913510   -0.525970
     15          6           0       -1.897831   -3.267570   -0.365220
     16          1           0       -1.309351   -3.888210    0.296940
     17          6           0       -2.973391   -3.828549   -1.047670
     18          1           0       -3.203542   -4.877719   -0.910000
     19          6           0       -3.751521   -3.047999   -1.894370
     20          1           0       -4.592501   -3.484689   -2.417870
     21          6           0       -3.443631   -1.701969   -2.071800
     22          1           0       -4.050790   -1.086999   -2.724290
     23          6           0       -2.362680   -1.141659   -1.402190
     24          1           0       -2.127880   -0.098089   -1.573870
     25          6           0       -0.514280    0.561990    0.872750
     26          1           0       -1.228900    0.930460    0.132430
     27          6           0       -1.071540    0.851810    2.268780
     28          1           0       -0.435720    0.397410    3.027530
     29          1           0       -1.021790    1.942380    2.423550
     30          6           0        2.203730    1.807319    1.650490
     31          6           0        2.361940    0.948119    2.743430
     32          1           0        1.773180    0.044699    2.826170
     33          6           0        3.292580    1.234749    3.735220
     34          1           0        3.395430    0.565909    4.580550
     35          6           0        4.091031    2.370249    3.641590
     36          1           0        4.815831    2.591028    4.414870
     37          6           0        3.957521    3.216629    2.546660
     38          1           0        4.579821    4.098648    2.461310
     39          6           0        3.022931    2.938279    1.554770
     40          1           0        2.932591    3.611099    0.712210
     41          6           0        0.520191    2.962770   -0.479070
     42          6           0        0.191481    4.065710    0.318340
     43          1           0        0.341651    4.032430    1.389690
     44          6           0       -0.322369    5.219040   -0.261870
     45          1           0       -0.571118    6.067970    0.362570
     46          6           0       -0.517899    5.284330   -1.638950
     47          1           0       -0.916588    6.185660   -2.087130
     48          6           0       -0.201729    4.190470   -2.436280
     49          1           0       -0.353909    4.236010   -3.507370
     50          6           0        0.314741    3.034010   -1.859660
     51          1           0        0.552201    2.180730   -2.482300
     52         45           0        1.709980   -0.474281   -1.073500
     53          6           0        2.452759   -2.476751   -1.892840
     54          6           0        1.504829   -1.958091   -2.750080
     55          6           0        3.084610    0.506359   -2.633110
     56          6           0        3.840190    0.081419   -1.562250
     57          6           0        3.955459   -2.431841   -2.099990
     58          1           0        2.103859   -3.203211   -1.167170
     59          1           0        0.489289   -2.326150   -2.645560
     60          6           0        1.759620   -1.190521   -4.023860
     61          6           0        2.951510   -0.210671   -3.963630
     62          1           0        2.783250    1.547489   -2.631090
     63          6           0        4.633100   -1.198472   -1.463650
     64          1           0        4.089780    0.820629   -0.807460
     65          1           0        4.393059   -3.329591   -1.659990
     66          1           0        4.181499   -2.482591   -3.164860
     67          1           0        1.901209   -1.895451   -4.852910
     68          1           0        0.850050   -0.634370   -4.261420
     69          1           0        3.881690   -0.728461   -4.196390
     70          1           0        2.822570    0.536579   -4.748590
     71          1           0        4.812889   -1.394602   -0.404250
     72          1           0        5.624540   -1.049522   -1.909800
     73          6           0       -3.481760    1.099361    1.787420
     74          1           0       -3.430659    2.171241    2.028600
     75          1           0       -3.364640    1.011511    0.705180
     76          6           0       -4.866530    0.571171    2.168400
     77          1           0       -5.064140    0.815151    3.216230
     78          1           0       -4.861020   -0.526889    2.088520
     79          6           0       -6.162850    0.496122    0.086320
     80          1           0       -6.595640   -0.507498    0.243040
     81          1           0       -5.215930    0.342801   -0.433600
     82          7           0       -2.421720    0.327361    2.440590
     83          1           0       -2.618770    0.255591    3.432940
     84          6           0       -7.075020    1.308232   -0.825080
     85          1           0       -8.014480    1.531992   -0.296230
     86          1           0       -6.594109    2.265862   -1.032830
     87          7           0       -5.902130    1.188452    1.345840
     88          1           0       -6.759360    1.288952    1.874110
     89          7           0       -7.270380    0.601362   -2.095270
     90          1           0       -7.865360   -0.210498   -1.969760
     91          1           0       -7.728150    1.199342   -2.772850
 ---------------------------------------------------------------------

 SCF Done:  E(RB3LYP) =  -2434.32822033     A.U. after   18 cycles

      1  P    Isotropic =   293.5336   Anisotropy =    91.1153

      2  P    Isotropic =   294.9026   Anisotropy =   103.5589

      3  C    Isotropic =    51.4725   Anisotropy =   165.3782

      4  C    Isotropic =    39.3964   Anisotropy =   181.6295

      5  H    Isotropic =    23.1115   Anisotropy =     9.9252

      6  C    Isotropic =    49.3884   Anisotropy =   187.3386

      7  H    Isotropic =    23.9040   Anisotropy =     6.8508

      8  C    Isotropic =    44.2808   Anisotropy =   199.2175

      9  H    Isotropic =    23.7704   Anisotropy =     3.5848

     10  C    Isotropic =    49.0671   Anisotropy =   188.3342

     11  H    Isotropic =    24.0024   Anisotropy =     6.6681

     12  C    Isotropic =    40.8025   Anisotropy =   197.0131

     13  H    Isotropic =    23.1485   Anisotropy =     9.8140

     14  C    Isotropic =    43.3876   Anisotropy =   172.2289

     15  C    Isotropic =    48.6484   Anisotropy =   187.9118

     16  H    Isotropic =    24.9007   Anisotropy =    12.3423

     17  C    Isotropic =    49.0226   Anisotropy =   188.9014

     18  H    Isotropic =    24.3554   Anisotropy =     6.1135

     19  C    Isotropic =    47.0142   Anisotropy =   194.8699

     20  H    Isotropic =    24.1674   Anisotropy =     3.9615

     21  C    Isotropic =    47.1268   Anisotropy =   195.4946

     22  H    Isotropic =    23.7609   Anisotropy =     5.6153

     23  C    Isotropic =    50.0813   Anisotropy =   188.5002

     24  H    Isotropic =    24.0745   Anisotropy =    10.0555

     25  C    Isotropic =   111.4000   Anisotropy =    56.2856

     26  H    Isotropic =    27.2840   Anisotropy =     5.5848

     27  C    Isotropic =   132.8229   Anisotropy =    48.8235

     28  H    Isotropic =    28.5474   Anisotropy =     4.6758

     29  H    Isotropic =    29.2074   Anisotropy =     5.5193

     30  C    Isotropic =    46.9874   Anisotropy =   163.4575

     31  C    Isotropic =    47.4113   Anisotropy =   185.8696

     32  H    Isotropic =    24.9611   Anisotropy =     7.7221

     33  C    Isotropic =    49.8091   Anisotropy =   187.9761

     34  H    Isotropic =    24.5085   Anisotropy =     8.3101

     35  C    Isotropic =    47.2919   Anisotropy =   195.4592

     36  H    Isotropic =    24.1935   Anisotropy =     4.0858

     37  C    Isotropic =    48.6311   Anisotropy =   190.3845

     38  H    Isotropic =    24.2794   Anisotropy =     6.1796

     39  C    Isotropic =    47.2189   Anisotropy =   189.2880

     40  H    Isotropic =    24.6900   Anisotropy =    12.0686

     41  C    Isotropic =    44.5744   Anisotropy =   176.7989

     42  C    Isotropic =    46.0981   Anisotropy =   188.2845

     43  H    Isotropic =    24.2435   Anisotropy =    11.5029

     44  C    Isotropic =    48.4866   Anisotropy =   190.1812

     45  H    Isotropic =    24.0991   Anisotropy =     6.0504

     46  C    Isotropic =    44.8099   Anisotropy =   198.6527

     47  H    Isotropic =    23.8613   Anisotropy =     3.6242

     48  C    Isotropic =    48.4909   Anisotropy =   189.0317

     49  H    Isotropic =    23.8847   Anisotropy =     6.8120

     50  C    Isotropic =    43.6926   Anisotropy =   178.9450

     51  H    Isotropic =    23.3280   Anisotropy =    10.0318

     52  Rh   Isotropic =  -304.3286   Anisotropy =   334.5036

     53  C    Isotropic =    80.5887   Anisotropy =   118.7622

     54  C    Isotropic =    72.3624   Anisotropy =   123.3178

     55  C    Isotropic =    78.8841   Anisotropy =   121.2348

     56  C    Isotropic =    73.4520   Anisotropy =   122.1146

     57  C    Isotropic =   154.0677   Anisotropy =    24.7241

     58  H    Isotropic =    27.0561   Anisotropy =     6.0514

     59  H    Isotropic =    27.0606   Anisotropy =     4.0863

     60  C    Isotropic =   147.8519   Anisotropy =    29.2274

     61  C    Isotropic =   154.0029   Anisotropy =    24.8201

     62  H    Isotropic =    26.8298   Anisotropy =     6.1445

     63  C    Isotropic =   147.9689   Anisotropy =    28.6789

     64  H    Isotropic =    26.8069   Anisotropy =     3.7984

     65  H    Isotropic =    29.8417   Anisotropy =    11.5615

     66  H    Isotropic =    29.7940   Anisotropy =     9.9622

     67  H    Isotropic =    29.2493   Anisotropy =    12.4877

     68  H    Isotropic =    29.0993   Anisotropy =     7.2040

     69  H    Isotropic =    29.7623   Anisotropy =     9.8961

     70  H    Isotropic =    29.7621   Anisotropy =    11.5841

     71  H    Isotropic =    29.3064   Anisotropy =     7.2559

     72  H    Isotropic =    29.2651   Anisotropy =    12.8024

     73  C    Isotropic =   133.5546   Anisotropy =    55.0722

     74  H    Isotropic =    29.9296   Anisotropy =     6.3532

     75  H    Isotropic =    29.6422   Anisotropy =     7.3136

     76  C    Isotropic =   132.2271   Anisotropy =    49.9654

     77  H    Isotropic =    29.3822   Anisotropy =     6.5312

     78  H    Isotropic =    29.9571   Anisotropy =     3.6464

     79  C    Isotropic =   127.7425   Anisotropy =    50.2658

     80  H    Isotropic =    29.7593   Anisotropy =     4.3716

     81  H    Isotropic =    29.7623   Anisotropy =     7.4589

     82  N    Isotropic =   205.9265   Anisotropy =    45.2228

     83  H    Isotropic =    31.8272   Anisotropy =    13.3577

     84  C    Isotropic =   136.3428   Anisotropy =    39.5110

     85  H    Isotropic =    29.1467   Anisotropy =     7.2046

     86  H    Isotropic =    29.3979   Anisotropy =     3.9928

     87  N    Isotropic =   212.7733   Anisotropy =    45.4349

     88  H    Isotropic =    31.6757   Anisotropy =    15.1553

     89  N    Isotropic =   230.1780   Anisotropy =    31.0615

     90  H    Isotropic =    31.7455   Anisotropy =    12.5726

     91  H    Isotropic =    31.1543   Anisotropy =    14.6581

 The electronic state is 1-A.
 Alpha  occ. eigenvalues --  -77.23386 -77.23111 -14.39628 -14.37173 -14.36022
 Alpha  occ. eigenvalues --  -10.30361 -10.30179 -10.29412 -10.29322 -10.29177
 Alpha  occ. eigenvalues --  -10.28916 -10.28614 -10.28541 -10.28319 -10.28259
 Alpha  occ. eigenvalues --  -10.28097 -10.28081 -10.28054 -10.27904 -10.27813
 Alpha  occ. eigenvalues --  -10.27658 -10.27562 -10.27498 -10.27414 -10.27352
 Alpha  occ. eigenvalues --  -10.27336 -10.27318 -10.27317 -10.27260 -10.27207
 Alpha  occ. eigenvalues --  -10.27206 -10.27151 -10.27105 -10.27076 -10.27056
 Alpha  occ. eigenvalues --  -10.27033 -10.26881 -10.26874 -10.26693 -10.26646
 Alpha  occ. eigenvalues --  -10.26568 -10.25721 -10.25644  -6.69338  -6.69071
 Alpha  occ. eigenvalues --   -4.85612  -4.85576  -4.85343  -4.85301  -4.85238
 Alpha  occ. eigenvalues --   -4.84983  -3.30964  -2.07844  -2.07198  -2.04447
 Alpha  occ. eigenvalues --   -1.00531  -0.97840  -0.96513  -0.96257  -0.95797
 Alpha  occ. eigenvalues --   -0.95439  -0.94402  -0.93942  -0.89587  -0.88668
 Alpha  occ. eigenvalues --   -0.87560  -0.86883  -0.85242  -0.85083  -0.85000
 Alpha  occ. eigenvalues --   -0.84848  -0.84572  -0.84506  -0.84209  -0.81790
 Alpha  occ. eigenvalues --   -0.79868  -0.77789  -0.77366  -0.75262  -0.74631
 Alpha  occ. eigenvalues --   -0.71283  -0.70986  -0.70824  -0.70586  -0.70123
 Alpha  occ. eigenvalues --   -0.70015  -0.69862  -0.69676  -0.68708  -0.66756
 Alpha  occ. eigenvalues --   -0.66683  -0.65345  -0.65226  -0.62325  -0.61962
 Alpha  occ. eigenvalues --   -0.61651  -0.60687  -0.60212  -0.59505  -0.58437
 Alpha  occ. eigenvalues --   -0.58049  -0.56649  -0.56394  -0.56058  -0.56003
 Alpha  occ. eigenvalues --   -0.55819  -0.55683  -0.55553  -0.55313  -0.55146
 Alpha  occ. eigenvalues --   -0.54828  -0.54657  -0.54154  -0.53803  -0.53219
 Alpha  occ. eigenvalues --   -0.52714  -0.52595  -0.52422  -0.52294  -0.52188
 Alpha  occ. eigenvalues --   -0.52093  -0.51938  -0.51810  -0.51436  -0.50883
 Alpha  occ. eigenvalues --   -0.50670  -0.49571  -0.48455  -0.48062  -0.47835
 Alpha  occ. eigenvalues --   -0.47473  -0.47351  -0.47153  -0.46896  -0.46867
 Alpha  occ. eigenvalues --   -0.46039  -0.45808  -0.45609  -0.45571  -0.45186
 Alpha  occ. eigenvalues --   -0.44847  -0.44697  -0.44441  -0.44238  -0.43467
 Alpha  occ. eigenvalues --   -0.42985  -0.42898  -0.42826  -0.42637  -0.42403
 Alpha  occ. eigenvalues --   -0.42007  -0.41935  -0.40859  -0.40815  -0.37577
 Alpha  occ. eigenvalues --   -0.37114  -0.36487  -0.36034  -0.35815  -0.35784
 Alpha  occ. eigenvalues --   -0.35439  -0.35300  -0.35053  -0.34743  -0.34103
 Alpha  occ. eigenvalues --   -0.33534  -0.33105  -0.32248  -0.30948  -0.30153
 Alpha  occ. eigenvalues --   -0.29770
 Alpha virt. eigenvalues --   -0.15921  -0.14328  -0.13552  -0.12953  -0.12191
 Alpha virt. eigenvalues --   -0.11845  -0.11364  -0.10600  -0.10340  -0.09787
 Alpha virt. eigenvalues --   -0.08805  -0.07263  -0.06481  -0.06094  -0.05454

 Mulliken charges:
               1
     1  P    0.424755
     2  P    0.418682
     3  C   -0.380470
     4  C   -0.011472
     5  H    0.173497
     6  C   -0.122771
     7  H    0.130583
     8  C   -0.082717
     9  H    0.135885
    10  C   -0.101169
    11  H    0.134087
    12  C   -0.040174
    13  H    0.192687
    14  C   -0.137678
    15  C   -0.074569
    16  H    0.161121
    17  C   -0.099038
    18  H    0.130984
    19  C   -0.104403
    20  H    0.135514
    21  C   -0.098753
    22  H    0.140199
    23  C   -0.103192
    24  H    0.148463
    25  C   -0.555549
    26  H    0.224708
    27  C   -0.168436
    28  H    0.153301
    29  H    0.143535
    30  C   -0.152049
    31  C   -0.070790
    32  H    0.180487
    33  C   -0.141256
    34  H    0.129209
    35  C   -0.083678
    36  H    0.137168
    37  C   -0.105108
    38  H    0.134010
    39  C   -0.090464
    40  H    0.165175
    41  C   -0.236364
    42  C   -0.095151
    43  H    0.160572
    44  C   -0.086438
    45  H    0.135433
    46  C   -0.091381
    47  H    0.138630
    48  C   -0.105817
    49  H    0.129991
    50  C   -0.079142
    51  H    0.178992
    52  Rh  -0.575970
    53  C   -0.047440
    54  C   -0.090470
    55  C   -0.051112
    56  C   -0.096446
    57  C   -0.354812
    58  H    0.193947
    59  H    0.209991
    60  C   -0.228221
    61  C   -0.344734
    62  H    0.195966
    63  C   -0.215319
    64  H    0.194861
    65  H    0.166642
    66  H    0.165485
    67  H    0.170532
    68  H    0.129810
    69  H    0.165597
    70  H    0.166018
    71  H    0.131090
    72  H    0.171455
    73  C   -0.078157
    74  H    0.109306
    75  H    0.097047
    76  C   -0.262917
    77  H    0.123015
    78  H    0.121139
    79  C   -0.146136
    80  H    0.090439
    81  H    0.108172
    82  N   -0.284302
    83  H    0.209885
    84  C   -0.174896
    85  H    0.099511
    86  H    0.120453
    87  N   -0.286036
    88  H    0.205532
    89  N   -0.435955
    90  H    0.197699
    91  H    0.209691
 Sum of Mulliken charges =   1.00000

 Dipole moment (field-independent basis, Debye):
    X=              0.6827    Y=              0.0623    Z=              0.9159  Tot=              1.1440
 Quadrupole moment (field-independent basis, Debye-Ang):
   XX=           -212.4984   YY=           -241.4173   ZZ=           -240.0664
   XY=              0.7059   XZ=              1.7544   YZ=             -5.8370

 Summary of Natural Population Analysis:

                                       Natural Population
                Natural  -----------------------------------------------
    Atom  No    Charge         Core      Valence    Rydberg      Total
 -----------------------------------------------------------------------
      P    1    1.13429      9.99636     3.81776    0.05160    13.86571
      P    2    1.12539      9.99640     3.82665    0.05156    13.87461
      C    3   -0.36054      1.99898     4.33731    0.02424     6.36054
      C    4   -0.18483      1.99910     4.17018    0.01556     6.18483
      H    5    0.22290      0.00000     0.77498    0.00212     0.77710
      C    6   -0.20338      1.99919     4.18953    0.01465     6.20338
      H    7    0.22098      0.00000     0.77777    0.00125     0.77902
      C    8   -0.17410      1.99921     4.16033    0.01456     6.17410
      H    9    0.22210      0.00000     0.77673    0.00117     0.77790
      C   10   -0.19934      1.99919     4.18523    0.01491     6.19934
      H   11    0.22163      0.00000     0.77710    0.00127     0.77837
      C   12   -0.19290      1.99910     4.17695    0.01686     6.19290
      H   13    0.24091      0.00000     0.75602    0.00306     0.75909
      C   14   -0.33628      1.99898     4.31324    0.02407     6.33628
      C   15   -0.19805      1.99909     4.18393    0.01503     6.19805
      H   16    0.22179      0.00000     0.77649    0.00172     0.77821
      C   17   -0.19016      1.99920     4.17628    0.01468     6.19016
      H   18    0.22083      0.00000     0.77794    0.00123     0.77917
      C   19   -0.18414      1.99920     4.17010    0.01484     6.18414
      H   20    0.22148      0.00000     0.77733    0.00119     0.77852
      C   21   -0.19090      1.99919     4.17650    0.01521     6.19090
      H   22    0.23049      0.00000     0.76762    0.00189     0.76951
      C   23   -0.20062      1.99909     4.18635    0.01519     6.20062
      H   24    0.20705      0.00000     0.79092    0.00203     0.79295
      C   25   -0.74759      1.99937     4.72383    0.02439     6.74759
      H   26    0.25976      0.00000     0.73795    0.00229     0.74024
      C   27   -0.22864      1.99929     4.21239    0.01696     6.22864
      H   28    0.20666      0.00000     0.79062    0.00273     0.79334
      H   29    0.17831      0.00000     0.81737    0.00432     0.82169
      C   30   -0.34229      1.99898     4.31989    0.02341     6.34229
      C   31   -0.19744      1.99909     4.18324    0.01511     6.19744
      H   32    0.21547      0.00000     0.78235    0.00218     0.78453
      C   33   -0.19144      1.99920     4.17768    0.01456     6.19144
      H   34    0.22045      0.00000     0.77829    0.00125     0.77955
      C   35   -0.18289      1.99920     4.16902    0.01467     6.18289
      H   36    0.22225      0.00000     0.77658    0.00117     0.77775
      C   37   -0.19074      1.99920     4.17684    0.01471     6.19074
      H   38    0.22240      0.00000     0.77638    0.00122     0.77760
      C   39   -0.20072      1.99910     4.18647    0.01515     6.20072
      H   40    0.22194      0.00000     0.77630    0.00176     0.77806
      C   41   -0.34683      1.99899     4.32436    0.02348     6.34683
      C   42   -0.19363      1.99910     4.17830    0.01624     6.19363
      H   43    0.22021      0.00000     0.77769    0.00210     0.77979
      C   44   -0.19146      1.99920     4.17769    0.01458     6.19146
      H   45    0.22309      0.00000     0.77568    0.00123     0.77691
      C   46   -0.17533      1.99921     4.16160    0.01453     6.17533
      H   47    0.22294      0.00000     0.77589    0.00117     0.77706
      C   48   -0.19541      1.99920     4.18163    0.01458     6.19541
      H   49    0.22112      0.00000     0.77765    0.00123     0.77888
      C   50   -0.19119      1.99910     4.17661    0.01548     6.19119
      H   51    0.22022      0.00000     0.77777    0.00201     0.77978
     Rh   52   -0.40025     35.98593     9.38540    0.02891    45.40025
      C   53   -0.18459      1.99907     4.16604    0.01949     6.18459
      C   54   -0.15274      1.99908     4.13409    0.01958     6.15274
      C   55   -0.18081      1.99907     4.16210    0.01964     6.18081
      C   56   -0.15658      1.99908     4.13778    0.01972     6.15658
      C   57   -0.42342      1.99936     4.41222    0.01184     6.42342
      H   58    0.22544      0.00000     0.77258    0.00198     0.77456
      H   59    0.23341      0.00000     0.76461    0.00198     0.76659
      C   60   -0.41801      1.99935     4.40605    0.01260     6.41801
      C   61   -0.42393      1.99936     4.41270    0.01187     6.42393
      H   62    0.22487      0.00000     0.77300    0.00213     0.77513
      C   63   -0.41841      1.99935     4.40645    0.01261     6.41841
      H   64    0.22992      0.00000     0.76799    0.00209     0.77008
      H   65    0.22702      0.00000     0.77149    0.00149     0.77298
      H   66    0.21479      0.00000     0.78322    0.00199     0.78521
      H   67    0.23362      0.00000     0.76447    0.00191     0.76638
      H   68    0.21607      0.00000     0.78235    0.00158     0.78393
      H   69    0.21477      0.00000     0.78323    0.00200     0.78523
      H   70    0.22679      0.00000     0.77170    0.00151     0.77321
      H   71    0.21578      0.00000     0.78264    0.00157     0.78422
      H   72    0.23379      0.00000     0.76431    0.00191     0.76621
      C   73   -0.21593      1.99938     4.20219    0.01436     6.21593
      H   74    0.16785      0.00000     0.82917    0.00298     0.83215
      H   75    0.17834      0.00000     0.81931    0.00235     0.82166
      C   76   -0.21221      1.99937     4.19866    0.01418     6.21221
      H   77    0.18925      0.00000     0.80895    0.00180     0.81075
      H   78    0.16697      0.00000     0.82934    0.00369     0.83303
      C   79   -0.21220      1.99938     4.19741    0.01541     6.21220
      H   80    0.15088      0.00000     0.84591    0.00321     0.84912
      H   81    0.18616      0.00000     0.81110    0.00275     0.81384
      N   82   -0.61193      1.99956     5.59404    0.01833     7.61193
      H   83    0.35786      0.00000     0.63844    0.00369     0.64214
      C   84   -0.21220      1.99939     4.19732    0.01549     6.21220
      H   85    0.15578      0.00000     0.84192    0.00231     0.84422
      H   86    0.19157      0.00000     0.80643    0.00201     0.80843
      N   87   -0.60768      1.99955     5.58972    0.01841     7.60768
      H   88    0.35606      0.00000     0.64108    0.00286     0.64394
      N   89   -0.81936      1.99962     5.80391    0.01583     7.81936
      H   90    0.34461      0.00000     0.65282    0.00257     0.65539
      H   91    0.35482      0.00000     0.64297    0.00221     0.64518
 =======================================================================
   * Total *    1.00000    137.94638   231.14842    0.90519   370.00000

 Normal termination of Gaussian 16 at Wed Jan 22 17:00:26 2025.
