 Gaussian 16, Revision B.01,
 Gaussian 16:  ES64L-G16RevB.01 20-Dec-2017

 ------------------------------------------
 # nmr=giao b3lyp/genecp pop=nbo scfcyc=200
 ------------------------------------------

 ---------
 MS-57_SPE
 ---------
 Symbolic Z-matrix:
 Charge =  1 Multiplicity = 1

                         Standard orientation:
 ---------------------------------------------------------------------
 Center     Atomic      Atomic             Coordinates (Angstroms)
 Number     Number       Type             X           Y           Z
 ---------------------------------------------------------------------
      1         15           0        0.098973   -1.295099   -0.120620
      2         15           0        0.955670    1.294532    0.491190
      3          6           0       -0.693409    0.363000    0.352290
      4          6           0       -0.937307   -2.110520   -1.410270
      5          6           0       -1.271205   -3.465051   -1.337330
      6          6           0       -1.965174   -4.073341   -2.379540
      7          6           0       -2.329225   -3.340532   -3.502820
      8          6           0       -1.988387   -1.992981   -3.588230
      9          6           0       -1.289387   -1.383531   -2.553930
     10          6           0        0.091444   -2.401959    1.347520
     11          6           0        1.314344   -2.856998    1.851740
     12          6           0        1.349895   -3.701998    2.955760
     13          6           0        0.164766   -4.095709    3.567630
     14          6           0       -1.055515   -3.639480    3.076410
     15          6           0       -1.100096   -2.797190    1.970750
     16          6           0        0.601688    2.965042   -0.202160
     17          6           0        0.793358    3.175022   -1.571320
     18          6           0        0.464546    4.396541   -2.149050
     19          6           0       -0.056205    5.419841   -1.364470
     20          6           0       -0.254285    5.216951   -0.002060
     21          6           0        0.069407    3.996471    0.579120
     22          6           0        1.437519    1.571722    2.246330
     23          6           0        1.055210    0.700662    3.270380
     24          6           0        1.533020    0.883643    4.563930
     25          6           0        2.406919    1.926584    4.848980
     26          6           0        2.806788    2.787974    3.831950
     27          6           0        2.329718    2.611983    2.538720
     28          1           0       -1.050330    0.752690   -0.606860
     29          1           0       -0.998134   -4.049940   -0.469930
     30          1           0       -2.221583   -5.122912   -2.308640
     31          1           0       -2.869265   -3.816512   -4.311480
     32          1           0       -2.259897   -1.418102   -4.464940
     33          1           0       -1.014339   -0.339730   -2.648800
     34          1           0        2.237504   -2.539867    1.384300
     35          1           0        2.301636   -4.050677    3.336610
     36          1           0        0.191046   -4.754659    4.426630
     37          1           0       -1.979734   -3.937651    3.555590
     38          1           0       -2.059596   -2.439321    1.614960
     39          1           0        1.199728    2.380442   -2.185080
     40          1           0        0.620976    4.550232   -3.209430
     41          1           0       -0.305786    6.373471   -1.812320
     42          1           0       -0.660696    6.011180    0.611580
     43          1           0       -0.083223    3.856511    1.641220
     44          1           0        0.392731   -0.129389    3.072000
     45          1           0        1.220001    0.206252    5.348440
     46          1           0        2.776279    2.067014    5.856910
     47          1           0        3.490177    3.600695    4.044040
     48          1           0        2.647117    3.296484    1.762120
     49         45           0        2.171811   -0.331417   -0.695530
     50          6           0        3.863300    0.923795   -1.609640
     51          6           0        4.273231    0.424996   -0.392290
     52          6           0        3.349174   -2.162995   -1.401680
     53          6           0        2.681383   -1.610746   -2.474630
     54          6           0        4.248451    0.368326   -2.968190
     55          1           0        3.465709    1.932045   -1.612950
     56          1           0        4.184630    1.081076    0.468000
     57          6           0        5.123292   -0.798283   -0.152860
     58          6           0        4.823973   -1.988734   -1.090080
     59          1           0        2.862394   -2.995106   -0.904920
     60          6           0        3.254422   -0.679305   -3.514300
     61          1           0        1.733853   -2.061127   -2.751580
     62          1           0        4.302340    1.195426   -3.678220
     63          1           0        5.253731   -0.049803   -2.921940
     64          1           0        6.184052   -0.527072   -0.226100
     65          1           0        4.969042   -1.109474    0.882720
     66          1           0        5.386823   -1.892513   -2.018320
     67          1           0        5.188124   -2.900873   -0.614300
     68          1           0        2.418551   -0.164176   -3.993020
     69          1           0        3.734003   -1.267085   -4.307270
     70          6           0       -3.209919    0.251957    0.836800
     71          7           0       -3.790278   -0.820033    1.196020
     72          6           0       -5.171898   -1.140515    0.829800
     73          1           0       -5.619108   -0.354215    0.213430
     74          6           0       -5.983157   -1.259026    2.123510
     75          1           0       -7.019167   -1.517127    1.895630
     76          1           0       -5.566347   -2.034155    2.769660
     77          1           0       -5.981139   -0.317536    2.675300
     78          6           0       -5.188186   -2.451675    0.041070
     79          1           0       -4.614116   -2.369554   -0.883590
     80          1           0       -4.761695   -3.263234    0.634480
     81          1           0       -6.213756   -2.720746   -0.218590
     82          6           0       -1.813129    0.513409    1.391620
     83          1           0       -1.780721    1.539629    1.769550
     84          1           0       -1.657549   -0.147091    2.240930
     85          6           0       -3.772920    1.316187   -0.061980
     86          6           0       -3.993182    2.606906    0.429680
     87          6           0       -4.083940    1.043686   -1.397940
     88          6           0       -4.530663    3.594346   -0.388010
     89          1           0       -3.768892    2.836497    1.464800
     90          6           0       -4.607261    2.036526   -2.219620
     91          1           0       -3.918169    0.049667   -1.794150
     92          6           0       -4.835363    3.312805   -1.716000
     93          1           0       -4.714864    4.583246    0.013100
     94          1           0       -4.845151    1.810245   -3.251760
     95          1           0       -5.252603    4.082505   -2.353070
 ---------------------------------------------------------------------

 SCF Done:  E(RB3LYP) =  -2553.51004063     A.U. after   16 cycles

      1  P    Isotropic =   286.7237   Anisotropy =    73.0090

      2  P    Isotropic =   284.0008   Anisotropy =    95.2105

      3  C    Isotropic =   110.4703   Anisotropy =    48.4582

      4  C    Isotropic =    43.2363   Anisotropy =   173.6130

      5  C    Isotropic =    46.7476   Anisotropy =   192.1754

      6  C    Isotropic =    48.6681   Anisotropy =   190.6968

      7  C    Isotropic =    46.8498   Anisotropy =   195.3470

      8  C    Isotropic =    49.6328   Anisotropy =   188.8921

      9  C    Isotropic =    48.4134   Anisotropy =   190.0583

     10  C    Isotropic =    52.6290   Anisotropy =   164.1170

     11  C    Isotropic =    39.5946   Anisotropy =   181.2357

     12  C    Isotropic =    49.2674   Anisotropy =   187.8425

     13  C    Isotropic =    44.2055   Anisotropy =   199.3177

     14  C    Isotropic =    48.6003   Anisotropy =   190.1463

     15  C    Isotropic =    38.3857   Anisotropy =   204.1446

     16  C    Isotropic =    44.8278   Anisotropy =   177.6639

     17  C    Isotropic =    44.2919   Anisotropy =   180.5483

     18  C    Isotropic =    48.9354   Anisotropy =   189.8368

     19  C    Isotropic =    45.3995   Anisotropy =   198.9118

     20  C    Isotropic =    49.0958   Anisotropy =   191.0523

     21  C    Isotropic =    46.2687   Anisotropy =   191.9366

     22  C    Isotropic =    47.6214   Anisotropy =   163.0345

     23  C    Isotropic =    47.3744   Anisotropy =   187.0604

     24  C    Isotropic =    49.6540   Anisotropy =   188.6722

     25  C    Isotropic =    47.0545   Anisotropy =   195.4803

     26  C    Isotropic =    48.7616   Anisotropy =   190.2974

     27  C    Isotropic =    47.2475   Anisotropy =   189.1751

     28  H    Isotropic =    27.6796   Anisotropy =     5.5713

     29  H    Isotropic =    24.8146   Anisotropy =    12.3375

     30  H    Isotropic =    24.3473   Anisotropy =     6.0848

     31  H    Isotropic =    24.1116   Anisotropy =     3.3989

     32  H    Isotropic =    24.0226   Anisotropy =     6.2254

     33  H    Isotropic =    24.0529   Anisotropy =     9.3284

     34  H    Isotropic =    23.3040   Anisotropy =     9.9341

     35  H    Isotropic =    23.9901   Anisotropy =     6.7315

     36  H    Isotropic =    23.7200   Anisotropy =     3.5011

     37  H    Isotropic =    23.7178   Anisotropy =     6.7424

     38  H    Isotropic =    22.3421   Anisotropy =     8.1284

     39  H    Isotropic =    23.6209   Anisotropy =     9.5028

     40  H    Isotropic =    24.2018   Anisotropy =     6.3385

     41  H    Isotropic =    24.1524   Anisotropy =     3.1092

     42  H    Isotropic =    24.3652   Anisotropy =     5.9107

     43  H    Isotropic =    24.5431   Anisotropy =    11.5365

     44  H    Isotropic =    25.2567   Anisotropy =     7.2629

     45  H    Isotropic =    24.6151   Anisotropy =     8.4352

     46  H    Isotropic =    24.2063   Anisotropy =     4.0522

     47  H    Isotropic =    24.2938   Anisotropy =     6.1037

     48  H    Isotropic =    24.8141   Anisotropy =    11.7648

     49  Rh   Isotropic =  -300.1992   Anisotropy =   330.0848

     50  C    Isotropic =    78.5716   Anisotropy =   121.9217

     51  C    Isotropic =    73.9483   Anisotropy =   121.3700

     52  C    Isotropic =    80.7276   Anisotropy =   118.6063

     53  C    Isotropic =    72.6352   Anisotropy =   123.0411

     54  C    Isotropic =   154.0474   Anisotropy =    25.0535

     55  H    Isotropic =    26.9056   Anisotropy =     5.7616

     56  H    Isotropic =    26.7354   Anisotropy =     4.3497

     57  C    Isotropic =   148.1106   Anisotropy =    28.7824

     58  C    Isotropic =   154.0621   Anisotropy =    24.9932

     59  H    Isotropic =    27.1141   Anisotropy =     6.2216

     60  C    Isotropic =   147.8167   Anisotropy =    29.2074

     61  H    Isotropic =    27.0980   Anisotropy =     4.1073

     62  H    Isotropic =    29.8110   Anisotropy =    11.4896

     63  H    Isotropic =    29.7761   Anisotropy =    10.0571

     64  H    Isotropic =    29.2740   Anisotropy =    12.9797

     65  H    Isotropic =    29.3612   Anisotropy =     7.2331

     66  H    Isotropic =    29.8250   Anisotropy =    10.0928

     67  H    Isotropic =    29.8721   Anisotropy =    11.6708

     68  H    Isotropic =    29.1099   Anisotropy =     7.0909

     69  H    Isotropic =    29.2627   Anisotropy =    12.6311

     70  C    Isotropic =    10.5268   Anisotropy =   141.4081

     71  N    Isotropic =  -137.0237   Anisotropy =   493.0744

     72  C    Isotropic =   125.1899   Anisotropy =    40.4840

     73  H    Isotropic =    28.8566   Anisotropy =     8.5074

     74  C    Isotropic =   159.6014   Anisotropy =    40.3937

     75  H    Isotropic =    31.0734   Anisotropy =    11.2438

     76  H    Isotropic =    30.7224   Anisotropy =     6.7070

     77  H    Isotropic =    31.3375   Anisotropy =     8.4656

     78  C    Isotropic =   160.2835   Anisotropy =    34.6281

     79  H    Isotropic =    32.2626   Anisotropy =    10.2682

     80  H    Isotropic =    30.9448   Anisotropy =     3.5357

     81  H    Isotropic =    31.0778   Anisotropy =     9.9972

     82  C    Isotropic =   138.4895   Anisotropy =    34.6138

     83  H    Isotropic =    29.1302   Anisotropy =     5.9049

     84  H    Isotropic =    28.3519   Anisotropy =     2.5423

     85  C    Isotropic =    42.6380   Anisotropy =   175.7874

     86  C    Isotropic =    52.4428   Anisotropy =   184.0625

     87  C    Isotropic =    50.5503   Anisotropy =   180.1891

     88  C    Isotropic =    49.5126   Anisotropy =   193.2691

     89  H    Isotropic =    25.0166   Anisotropy =     8.3080

     90  C    Isotropic =    51.5305   Anisotropy =   188.5326

     91  H    Isotropic =    25.3557   Anisotropy =     5.0923

     92  C    Isotropic =    49.2603   Anisotropy =   194.3154

     93  H    Isotropic =    24.5822   Anisotropy =     5.0135

     94  H    Isotropic =    24.5367   Anisotropy =     6.0732

     95  H    Isotropic =    24.5084   Anisotropy =     3.1788

 The electronic state is 1-A.
 Alpha  occ. eigenvalues --  -77.23440 -77.23337 -14.38981 -10.31001 -10.30931
 Alpha  occ. eigenvalues --  -10.29405 -10.29346 -10.29325 -10.29067 -10.28708
 Alpha  occ. eigenvalues --  -10.28656 -10.28448 -10.28353 -10.28143 -10.28131
 Alpha  occ. eigenvalues --  -10.28055 -10.27907 -10.27890 -10.27846 -10.27837
 Alpha  occ. eigenvalues --  -10.27744 -10.27455 -10.27413 -10.27399 -10.27363
 Alpha  occ. eigenvalues --  -10.27345 -10.27294 -10.27289 -10.27262 -10.27239
 Alpha  occ. eigenvalues --  -10.27216 -10.27183 -10.27178 -10.27145 -10.27141
 Alpha  occ. eigenvalues --  -10.27122 -10.27073 -10.27005 -10.26969 -10.26955
 Alpha  occ. eigenvalues --  -10.26337 -10.26276 -10.25948 -10.25924 -10.25807
 Alpha  occ. eigenvalues --  -10.23095 -10.22667  -6.69395  -6.69285  -4.85669
 Alpha  occ. eigenvalues --   -4.85629  -4.85554  -4.85514  -4.85297  -4.85200
 Alpha  occ. eigenvalues --   -3.31089  -2.07979  -2.07320  -2.04566  -1.01356
 Alpha  occ. eigenvalues --   -0.96585  -0.96328  -0.95810  -0.95696  -0.94441
 Alpha  occ. eigenvalues --   -0.94058  -0.90812  -0.88778  -0.87670  -0.87350
 Alpha  occ. eigenvalues --   -0.86963  -0.85172  -0.85057  -0.85016  -0.84764
 Alpha  occ. eigenvalues --   -0.84640  -0.84563  -0.84420  -0.83552  -0.83484
 Alpha  occ. eigenvalues --   -0.80017  -0.79052  -0.77475  -0.75705  -0.75346
 Alpha  occ. eigenvalues --   -0.72407  -0.71152  -0.71058  -0.70702  -0.70462
 Alpha  occ. eigenvalues --   -0.70379  -0.70224  -0.69995  -0.69856  -0.69353
 Alpha  occ. eigenvalues --   -0.67658  -0.66731  -0.65519  -0.65461  -0.63332
 Alpha  occ. eigenvalues --   -0.62350  -0.62091  -0.61773  -0.60497  -0.60274
 Alpha  occ. eigenvalues --   -0.59621  -0.59020  -0.57531  -0.56680  -0.56350
 Alpha  occ. eigenvalues --   -0.56194  -0.55945  -0.55802  -0.55573  -0.55344
 Alpha  occ. eigenvalues --   -0.55290  -0.55021  -0.54962  -0.54760  -0.54029
 Alpha  occ. eigenvalues --   -0.53705  -0.53320  -0.52773  -0.52591  -0.52482
 Alpha  occ. eigenvalues --   -0.52364  -0.52269  -0.52256  -0.52072  -0.51945
 Alpha  occ. eigenvalues --   -0.51078  -0.50973  -0.50600  -0.50165  -0.49359
 Alpha  occ. eigenvalues --   -0.48421  -0.48315  -0.47849  -0.47716  -0.47496
 Alpha  occ. eigenvalues --   -0.47371  -0.47044  -0.46761  -0.45941  -0.45820
 Alpha  occ. eigenvalues --   -0.45716  -0.45692  -0.45656  -0.44926  -0.44833
 Alpha  occ. eigenvalues --   -0.44712  -0.44499  -0.44366  -0.44152  -0.43702
 Alpha  occ. eigenvalues --   -0.43335  -0.43044  -0.42928  -0.42781  -0.42523
 Alpha  occ. eigenvalues --   -0.42374  -0.42127  -0.41010  -0.40862  -0.37976
 Alpha  occ. eigenvalues --   -0.37683  -0.37323  -0.36502  -0.36078  -0.35830
 Alpha  occ. eigenvalues --   -0.35782  -0.35552  -0.35312  -0.35174  -0.34888
 Alpha  occ. eigenvalues --   -0.34255  -0.34195  -0.33734  -0.33661  -0.33231
 Alpha  occ. eigenvalues --   -0.32945  -0.30281
 Alpha virt. eigenvalues --   -0.15989  -0.14484  -0.13744  -0.12870  -0.12414
 Alpha virt. eigenvalues --   -0.11908  -0.11556  -0.11304  -0.10724  -0.10533
 Alpha virt. eigenvalues --   -0.10053  -0.09666  -0.08924  -0.07980  -0.07330

 Mulliken charges:
               1
     1  P    0.386056
     2  P    0.429030
     3  C   -0.595264
     4  C   -0.142265
     5  C   -0.054823
     6  C   -0.103031
     7  C   -0.088456
     8  C   -0.111074
     9  C   -0.104232
    10  C   -0.418978
    11  C    0.048940
    12  C   -0.147178
    13  C   -0.065153
    14  C   -0.147637
    15  C   -0.020620
    16  C   -0.228960
    17  C   -0.082842
    18  C   -0.100659
    19  C   -0.085134
    20  C   -0.092895
    21  C   -0.077863
    22  C   -0.113492
    23  C   -0.050917
    24  C   -0.135829
    25  C   -0.092493
    26  C   -0.092138
    27  C   -0.131867
    28  H    0.240710
    29  H    0.164747
    30  H    0.132772
    31  H    0.136740
    32  H    0.129411
    33  H    0.141600
    34  H    0.162282
    35  H    0.128647
    36  H    0.136173
    37  H    0.133992
    38  H    0.255746
    39  H    0.180880
    40  H    0.128148
    41  H    0.136434
    42  H    0.132249
    43  H    0.160034
    44  H    0.160103
    45  H    0.131368
    46  H    0.136645
    47  H    0.134234
    48  H    0.164476
    49  Rh  -0.597496
    50  C   -0.054761
    51  C   -0.101817
    52  C   -0.040488
    53  C   -0.090537
    54  C   -0.343595
    55  H    0.201673
    56  H    0.195482
    57  C   -0.211752
    58  C   -0.358376
    59  H    0.191786
    60  C   -0.232636
    61  H    0.211682
    62  H    0.166131
    63  H    0.166209
    64  H    0.171484
    65  H    0.132727
    66  H    0.165700
    67  H    0.167201
    68  H    0.126890
    69  H    0.170971
    70  C   -0.082846
    71  N   -0.104503
    72  C   -0.075396
    73  H    0.133846
    74  C   -0.342768
    75  H    0.128526
    76  H    0.117947
    77  H    0.119918
    78  C   -0.344667
    79  H    0.124344
    80  H    0.115649
    81  H    0.136250
    82  C   -0.169063
    83  H    0.174954
    84  H    0.165041
    85  C   -0.125825
    86  C   -0.114961
    87  C   -0.067720
    88  C   -0.093487
    89  H    0.127185
    90  C   -0.115671
    91  H    0.165395
    92  C   -0.090845
    93  H    0.122469
    94  H    0.121891
    95  H    0.130242
 Sum of Mulliken charges =   1.00000

 Dipole moment (field-independent basis, Debye):
    X=              2.5168    Y=              0.9585    Z=             -0.9888  Tot=              2.8689
 Quadrupole moment (field-independent basis, Debye-Ang):
   XX=           -257.0858   YY=           -253.3189   ZZ=           -260.5042
   XY=             -2.5392   XZ=              7.4007   YZ=             -2.8472

 Summary of Natural Population Analysis:

                                       Natural Population
                Natural  -----------------------------------------------
    Atom  No    Charge         Core      Valence    Rydberg      Total
 -----------------------------------------------------------------------
      P    1    1.12863      9.99636     3.82164    0.05336    13.87137
      P    2    1.12912      9.99637     3.82255    0.05195    13.87088
      C    3   -0.72556      1.99936     4.70343    0.02277     6.72556
      C    4   -0.33881      1.99898     4.31550    0.02432     6.33881
      C    5   -0.19073      1.99910     4.17621    0.01542     6.19073
      C    6   -0.18922      1.99920     4.17519    0.01484     6.18922
      C    7   -0.18395      1.99920     4.16992    0.01484     6.18395
      C    8   -0.19820      1.99919     4.18411    0.01490     6.19820
      C    9   -0.20202      1.99910     4.18743    0.01549     6.20202
      C   10   -0.36547      1.99898     4.34283    0.02367     6.36547
      C   11   -0.17888      1.99909     4.16431    0.01547     6.17888
      C   12   -0.20288      1.99919     4.18907    0.01462     6.20288
      C   13   -0.17348      1.99920     4.15978    0.01450     6.17348
      C   14   -0.19698      1.99919     4.18277    0.01502     6.19698
      C   15   -0.20267      1.99909     4.18661    0.01697     6.20267
      C   16   -0.34587      1.99899     4.32315    0.02372     6.34587
      C   17   -0.19194      1.99910     4.17747    0.01537     6.19194
      C   18   -0.19448      1.99920     4.18070    0.01458     6.19448
      C   19   -0.17521      1.99920     4.16145    0.01455     6.17521
      C   20   -0.19095      1.99919     4.17712    0.01464     6.19095
      C   21   -0.18985      1.99909     4.17498    0.01577     6.18985
      C   22   -0.34521      1.99899     4.32275    0.02348     6.34521
      C   23   -0.19318      1.99909     4.17904    0.01505     6.19318
      C   24   -0.19032      1.99920     4.17659    0.01453     6.19032
      C   25   -0.18233      1.99920     4.16849    0.01464     6.18233
      C   26   -0.19224      1.99920     4.17836    0.01468     6.19224
      C   27   -0.20110      1.99910     4.18684    0.01516     6.20110
      H   28    0.26272      0.00000     0.73475    0.00253     0.73728
      H   29    0.22541      0.00000     0.77282    0.00177     0.77459
      H   30    0.22287      0.00000     0.77592    0.00122     0.77713
      H   31    0.22258      0.00000     0.77626    0.00116     0.77742
      H   32    0.22012      0.00000     0.77863    0.00125     0.77988
      H   33    0.21193      0.00000     0.78603    0.00204     0.78807
      H   34    0.22139      0.00000     0.77650    0.00211     0.77861
      H   35    0.22059      0.00000     0.77816    0.00125     0.77941
      H   36    0.22166      0.00000     0.77717    0.00117     0.77834
      H   37    0.22298      0.00000     0.77568    0.00134     0.77702
      H   38    0.25284      0.00000     0.74406    0.00310     0.74716
      H   39    0.21899      0.00000     0.77904    0.00197     0.78101
      H   40    0.22025      0.00000     0.77852    0.00124     0.77975
      H   41    0.22193      0.00000     0.77689    0.00118     0.77807
      H   42    0.22156      0.00000     0.77719    0.00125     0.77844
      H   43    0.22093      0.00000     0.77713    0.00193     0.77907
      H   44    0.21747      0.00000     0.78040    0.00214     0.78253
      H   45    0.22140      0.00000     0.77736    0.00125     0.77860
      H   46    0.22221      0.00000     0.77662    0.00117     0.77779
      H   47    0.22218      0.00000     0.77659    0.00123     0.77782
      H   48    0.21951      0.00000     0.77870    0.00179     0.78049
     Rh   49   -0.39844     35.98588     9.38421    0.02835    45.39844
      C   50   -0.17863      1.99906     4.15993    0.01963     6.17863
      C   51   -0.15805      1.99908     4.13923    0.01974     6.15805
      C   52   -0.18481      1.99907     4.16629    0.01945     6.18481
      C   53   -0.15364      1.99908     4.13497    0.01959     6.15364
      C   54   -0.42392      1.99936     4.41269    0.01187     6.42392
      H   55    0.22592      0.00000     0.77191    0.00217     0.77408
      H   56    0.22912      0.00000     0.76873    0.00215     0.77088
      C   57   -0.41857      1.99935     4.40663    0.01259     6.41857
      C   58   -0.42335      1.99936     4.41217    0.01182     6.42335
      H   59    0.22573      0.00000     0.77231    0.00196     0.77427
      C   60   -0.41731      1.99935     4.40536    0.01259     6.41731
      H   61    0.23241      0.00000     0.76563    0.00195     0.76759
      H   62    0.22672      0.00000     0.77178    0.00150     0.77328
      H   63    0.21497      0.00000     0.78304    0.00199     0.78503
      H   64    0.23383      0.00000     0.76427    0.00190     0.76617
      H   65    0.21652      0.00000     0.78191    0.00157     0.78348
      H   66    0.21463      0.00000     0.78338    0.00199     0.78537
      H   67    0.22747      0.00000     0.77104    0.00149     0.77253
      H   68    0.21432      0.00000     0.78410    0.00158     0.78568
      H   69    0.23335      0.00000     0.76473    0.00191     0.76665
      C   70    0.28840      1.99918     3.68463    0.02779     5.71160
      N   71   -0.40312      1.99931     5.38263    0.02118     7.40312
      C   72   -0.07646      1.99939     4.06221    0.01486     6.07646
      H   73    0.18101      0.00000     0.81572    0.00327     0.81899
      C   74   -0.58429      1.99942     4.57698    0.00788     6.58429
      H   75    0.21044      0.00000     0.78843    0.00112     0.78956
      H   76    0.20472      0.00000     0.79363    0.00165     0.79528
      H   77    0.20736      0.00000     0.79142    0.00122     0.79264
      C   78   -0.58731      1.99942     4.57980    0.00809     6.58731
      H   79    0.20168      0.00000     0.79646    0.00186     0.79832
      H   80    0.20371      0.00000     0.79469    0.00160     0.79629
      H   81    0.21231      0.00000     0.78653    0.00116     0.78769
      C   82   -0.45989      1.99929     4.44272    0.01788     6.45989
      H   83    0.22604      0.00000     0.77134    0.00262     0.77396
      H   84    0.23457      0.00000     0.76308    0.00234     0.76543
      C   85   -0.12024      1.99899     4.10138    0.01987     6.12024
      C   86   -0.19254      1.99910     4.17889    0.01455     6.19254
      C   87   -0.20218      1.99910     4.18820    0.01488     6.20218
      C   88   -0.19346      1.99920     4.17933    0.01493     6.19346
      H   89    0.20901      0.00000     0.78934    0.00165     0.79099
      C   90   -0.19869      1.99920     4.18446    0.01503     6.19869
      H   91    0.21578      0.00000     0.78207    0.00215     0.78422
      C   92   -0.19315      1.99920     4.17914    0.01480     6.19315
      H   93    0.21673      0.00000     0.78203    0.00124     0.78327
      H   94    0.21571      0.00000     0.78306    0.00123     0.78429
      H   95    0.21783      0.00000     0.78099    0.00117     0.78217
 =======================================================================
   * Total *    1.00000    145.94155   245.10619    0.95226   392.00000

 Normal termination of Gaussian 16 at Wed Jan 22 19:55:42 2025.
