 Gaussian 16, Revision B.01,
 Gaussian 16:  ES64L-G16RevB.01 20-Dec-2017

 ------------------------------------------
 # nmr=giao b3lyp/genecp pop=nbo scfcyc=200
 ------------------------------------------

 ---------
 MS-52_SPE
 ---------
 Symbolic Z-matrix:
 Charge =  1 Multiplicity = 1

                         Standard orientation:
 ---------------------------------------------------------------------
 Center     Atomic      Atomic             Coordinates (Angstroms)
 Number     Number       Type             X           Y           Z
 ---------------------------------------------------------------------
      1         15           0       -1.721280    0.907670    1.382870
      2          6           0        0.062250    0.338510    1.231210
      3          6           0       -1.872280    0.297350    3.146750
      4          1           0       -2.545670    0.936510    3.716220
      5          1           0       -2.285370   -0.711380    3.130640
      6          6           0       -0.432270    0.309820    3.676500
      7          1           0       -0.355040   -0.247660    4.611380
      8          1           0       -0.125320    1.336280    3.889650
      9          6           0        0.495040   -0.280540    2.586270
     10          6           0        0.363180   -1.792690    2.471220
     11          6           0        0.579810   -2.665430    3.538040
     12          1           0        0.902720   -2.282830    4.499070
     13          6           0        0.385930   -4.031240    3.373080
     14          1           0        0.558760   -4.702150    4.205230
     15          6           0       -0.037550   -4.543160    2.146460
     16          1           0       -0.199870   -5.607010    2.029710
     17          6           0       -0.245630   -3.686750    1.075390
     18          1           0       -0.569730   -4.088110    0.123440
     19          6           0       -0.021920   -2.317300    1.232860
     20          6           0       -1.806200    2.742140    1.521380
     21          6           0       -3.072980    3.329310    1.624140
     22          1           0       -3.965800    2.714480    1.609410
     23          6           0       -3.201850    4.706110    1.760730
     24          1           0       -4.186570    5.148210    1.845290
     25          6           0       -2.068300    5.513250    1.784890
     26          1           0       -2.168520    6.586250    1.887450
     27          6           0       -0.807080    4.937830    1.679400
     28          1           0        0.077830    5.561420    1.701680
     29          6           0       -0.673810    3.558640    1.548490
     30          1           0        0.317810    3.132200    1.473290
     31          1           0        1.532710   -0.022770    2.811300
     32          1           0        0.744410    1.087370    0.837750
     33         45           0       -2.555760   -0.426220   -0.413090
     34          6           0       -2.966950   -1.388450   -2.421530
     35          6           0       -3.267970   -2.290620   -1.417660
     36          6           0       -4.807920   -0.115140   -0.243830
     37          6           0       -4.281140    0.842790   -1.085480
     38          6           0       -3.980630   -0.575470   -3.206990
     39          1           0       -1.992010   -1.486250   -2.886920
     40          1           0       -2.516130   -3.037140   -1.184010
     41          6           0       -4.632680   -2.593990   -0.850500
     42          6           0       -5.548570   -1.362240   -0.686650
     43          1           0       -4.941470    0.159650    0.796990
     44          6           0       -4.274150    0.811000   -2.594410
     45          1           0       -4.063030    1.817010   -0.660880
     46          1           0       -3.600380   -0.431730   -4.219530
     47          1           0       -4.902110   -1.147950   -3.313130
     48          1           0       -5.130480   -3.346910   -1.474640
     49          1           0       -4.487870   -3.063940    0.124580
     50          1           0       -6.084940   -1.160340   -1.613610
     51          1           0       -6.312190   -1.596260    0.056810
     52          1           0       -3.516220    1.519230   -2.934640
     53          1           0       -5.230630    1.190280   -2.975280
     54         15           0       -0.305210   -1.010300   -0.016150
     55          6           0        2.142370   -0.434180   -1.204590
     56          6           0        3.226940   -1.154520   -0.654930
     57          6           0        2.319270    0.921550   -1.606690
     58          6           0        4.312180   -0.404470   -0.184910
     59          6           0        3.458220    1.582480   -1.147300
     60          6           0        4.430490    0.967320   -0.357720
     61          1           0        5.116010   -0.932390    0.307850
     62          1           0        3.597230    2.615390   -1.414060
     63          6           0        1.398720    1.644810   -2.635990
     64          6           0        3.431520   -2.698030   -0.665790
     65          6           0        5.634900    1.725150    0.225610
     66          6           0        1.294700    0.788360   -3.921860
     67          1           0        0.812470   -0.180550   -3.779670
     68          1           0        0.712630    1.320800   -4.677270
     69          1           0        2.285530    0.594970   -4.335520
     70          6           0       -0.008920    1.976420   -2.100380
     71          1           0       -0.565060    2.533340   -2.858580
     72          1           0       -0.606460    1.100310   -1.848510
     73          1           0        0.051590    2.611610   -1.214860
     74          6           0        2.002940    2.993070   -3.087180
     75          1           0        2.053470    3.718150   -2.273220
     76          1           0        3.001220    2.876440   -3.510490
     77          1           0        1.365730    3.422880   -3.861780
     78          6           0        6.941430    1.182720   -0.394320
     79          1           0        7.802450    1.720689    0.008940
     80          1           0        7.084520    0.122620   -0.180160
     81          1           0        6.941840    1.308620   -1.478960
     82          6           0        5.673430    1.518190    1.755350
     83          1           0        5.763300    0.463970    2.021550
     84          1           0        6.529140    2.042630    2.186480
     85          1           0        4.767860    1.908320    2.226520
     86          6           0        5.565760    3.236220   -0.049920
     87          1           0        5.603440    3.461090   -1.117750
     88          1           0        4.660350    3.685640    0.364770
     89          1           0        6.420230    3.731190    0.414840
     90          6           0        2.376360   -3.499370   -1.448170
     91          1           0        1.402740   -3.498000   -0.973910
     92          1           0        2.259290   -3.121640   -2.465160
     93          1           0        2.712120   -4.536410   -1.517740
     94          6           0        3.541630   -3.259850    0.765270
     95          1           0        2.619120   -3.116740    1.325490
     96          1           0        3.751420   -4.331530    0.731040
     97          1           0        4.350600   -2.785250    1.323050
     98          6           0        4.772680   -2.971100   -1.401560
     99          1           0        4.754230   -2.562810   -2.413940
    100          1           0        5.633420   -2.548670   -0.885620
    101          1           0        4.932320   -4.048770   -1.474900
    102          7           0        0.837750   -1.050680   -1.299190
    103          1           0        0.368940   -0.909190   -2.181310
 ---------------------------------------------------------------------

 SCF Done:  E(RB3LYP) =  -2483.31576504     A.U. after   19 cycles

      1  P    Isotropic =   308.8111   Anisotropy =    81.4015

      2  C    Isotropic =   126.2523   Anisotropy =    42.0688

      3  C    Isotropic =   147.2006   Anisotropy =    42.1302

      4  H    Isotropic =    30.2517   Anisotropy =    10.3525

      5  H    Isotropic =    30.4754   Anisotropy =     6.5021

      6  C    Isotropic =   145.7672   Anisotropy =    38.0880

      7  H    Isotropic =    29.7152   Anisotropy =    12.7873

      8  H    Isotropic =    30.1345   Anisotropy =     8.9959

      9  C    Isotropic =   125.3066   Anisotropy =    32.8677

     10  C    Isotropic =    28.1017   Anisotropy =   178.5036

     11  C    Isotropic =    52.8569   Anisotropy =   179.1791

     12  H    Isotropic =    24.3908   Anisotropy =     9.1871

     13  C    Isotropic =    44.5349   Anisotropy =   197.0320

     14  H    Isotropic =    24.0775   Anisotropy =     3.7497

     15  C    Isotropic =    49.4562   Anisotropy =   190.2873

     16  H    Isotropic =    24.1123   Anisotropy =     5.2175

     17  C    Isotropic =    46.3363   Anisotropy =   191.1655

     18  H    Isotropic =    23.9275   Anisotropy =     8.2399

     19  C    Isotropic =    40.2166   Anisotropy =   154.2206

     20  C    Isotropic =    46.4570   Anisotropy =   175.6280

     21  C    Isotropic =    47.8071   Anisotropy =   180.6254

     22  H    Isotropic =    24.7398   Anisotropy =    11.2798

     23  C    Isotropic =    47.9768   Anisotropy =   191.4116

     24  H    Isotropic =    24.1438   Anisotropy =     6.3184

     25  C    Isotropic =    46.2425   Anisotropy =   196.5755

     26  H    Isotropic =    24.0743   Anisotropy =     4.0740

     27  C    Isotropic =    49.1096   Anisotropy =   189.0308

     28  H    Isotropic =    24.1730   Anisotropy =     7.4402

     29  C    Isotropic =    49.9538   Anisotropy =   183.9295

     30  H    Isotropic =    24.6647   Anisotropy =    10.4339

     31  H    Isotropic =    28.0884   Anisotropy =     7.1676

     32  H    Isotropic =    28.2206   Anisotropy =     8.4845

     33  Rh   Isotropic =  -332.4639   Anisotropy =   350.4473

     34  C    Isotropic =    84.1267   Anisotropy =   111.4934

     35  C    Isotropic =    79.3141   Anisotropy =   110.6662

     36  C    Isotropic =    81.5013   Anisotropy =   120.1251

     37  C    Isotropic =    74.7479   Anisotropy =   121.4779

     38  C    Isotropic =   153.8430   Anisotropy =    24.6869

     39  H    Isotropic =    26.9302   Anisotropy =     4.9504

     40  H    Isotropic =    25.9372   Anisotropy =     5.2942

     41  C    Isotropic =   146.9533   Anisotropy =    31.5658

     42  C    Isotropic =   154.3736   Anisotropy =    25.5900

     43  H    Isotropic =    26.8554   Anisotropy =     8.1526

     44  C    Isotropic =   147.7884   Anisotropy =    28.4551

     45  H    Isotropic =    26.4702   Anisotropy =     5.0375

     46  H    Isotropic =    29.8064   Anisotropy =    10.4413

     47  H    Isotropic =    29.7619   Anisotropy =    10.0372

     48  H    Isotropic =    29.0564   Anisotropy =    12.8457

     49  H    Isotropic =    29.1977   Anisotropy =     7.4309

     50  H    Isotropic =    29.8066   Anisotropy =     9.8677

     51  H    Isotropic =    29.8870   Anisotropy =    12.1754

     52  H    Isotropic =    29.2170   Anisotropy =     6.2834

     53  H    Isotropic =    29.2258   Anisotropy =    12.8258

     54  P    Isotropic =   239.3546   Anisotropy =    43.5791

     55  C    Isotropic =    44.5021   Anisotropy =   120.6258

     56  C    Isotropic =    26.4590   Anisotropy =   190.4960

     57  C    Isotropic =    30.2919   Anisotropy =   185.3710

     58  C    Isotropic =    47.8079   Anisotropy =   177.0248

     59  C    Isotropic =    56.6172   Anisotropy =   160.9278

     60  C    Isotropic =    27.0223   Anisotropy =   202.8980

     61  H    Isotropic =    24.3318   Anisotropy =    15.1756

     62  H    Isotropic =    24.4414   Anisotropy =    15.4849

     63  C    Isotropic =   141.7376   Anisotropy =    16.9967

     64  C    Isotropic =   139.9881   Anisotropy =    20.1473

     65  C    Isotropic =   143.9898   Anisotropy =    15.8011

     66  C    Isotropic =   152.8473   Anisotropy =    46.8528

     67  H    Isotropic =    30.6069   Anisotropy =     4.9310

     68  H    Isotropic =    30.7138   Anisotropy =     9.4615

     69  H    Isotropic =    30.7835   Anisotropy =     8.7649

     70  C    Isotropic =   150.6564   Anisotropy =    41.1783

     71  H    Isotropic =    30.5988   Anisotropy =     6.0110

     72  H    Isotropic =    28.5253   Anisotropy =    12.3713

     73  H    Isotropic =    30.6829   Anisotropy =     9.4177

     74  C    Isotropic =   149.3557   Anisotropy =    41.2338

     75  H    Isotropic =    30.1644   Anisotropy =     7.5495

     76  H    Isotropic =    30.4140   Anisotropy =     9.4502

     77  H    Isotropic =    30.8800   Anisotropy =     8.6598

     78  C    Isotropic =   150.3414   Anisotropy =    46.8743

     79  H    Isotropic =    30.6238   Anisotropy =    10.6241

     80  H    Isotropic =    30.3810   Anisotropy =     6.9197

     81  H    Isotropic =    30.7366   Anisotropy =     8.0578

     82  C    Isotropic =   150.9704   Anisotropy =    44.7793

     83  H    Isotropic =    30.4781   Anisotropy =     6.2471

     84  H    Isotropic =    30.6828   Anisotropy =    10.0242

     85  H    Isotropic =    31.0471   Anisotropy =     6.3466

     86  C    Isotropic =   154.8555   Anisotropy =    36.5111

     87  H    Isotropic =    30.2400   Anisotropy =     7.3616

     88  H    Isotropic =    30.5590   Anisotropy =     7.0833

     89  H    Isotropic =    30.6692   Anisotropy =     9.4912

     90  C    Isotropic =   152.3204   Anisotropy =    25.4267

     91  H    Isotropic =    29.7628   Anisotropy =     9.5327

     92  H    Isotropic =    30.6749   Anisotropy =     5.1024

     93  H    Isotropic =    31.1730   Anisotropy =     8.6856

     94  C    Isotropic =   153.5304   Anisotropy =    42.2879

     95  H    Isotropic =    33.0628   Anisotropy =    15.7186

     96  H    Isotropic =    31.4684   Anisotropy =     8.4345

     97  H    Isotropic =    30.8971   Anisotropy =     6.9956

     98  C    Isotropic =   145.5104   Anisotropy =    53.3028

     99  H    Isotropic =    31.2198   Anisotropy =     8.4966

    100  H    Isotropic =    30.6388   Anisotropy =     8.4555

    101  H    Isotropic =    31.1491   Anisotropy =    10.7152

    102  N    Isotropic =   176.1181   Anisotropy =    51.5539

    103  H    Isotropic =    28.0681   Anisotropy =     8.9177

 The electronic state is 1-A.
 Alpha  occ. eigenvalues --  -77.24975 -77.23141 -14.42715 -10.30103 -10.29994
 Alpha  occ. eigenvalues --  -10.29975 -10.29888 -10.29319 -10.29313 -10.29149
 Alpha  occ. eigenvalues --  -10.29114 -10.29033 -10.28986 -10.28888 -10.28646
 Alpha  occ. eigenvalues --  -10.28591 -10.28432 -10.28412 -10.28356 -10.27863
 Alpha  occ. eigenvalues --  -10.27805 -10.27783 -10.27747 -10.27662 -10.27547
 Alpha  occ. eigenvalues --  -10.27546 -10.27511 -10.27378 -10.27324 -10.26962
 Alpha  occ. eigenvalues --  -10.26899 -10.26623 -10.26331 -10.25576 -10.24858
 Alpha  occ. eigenvalues --  -10.24850 -10.24526 -10.24418 -10.24019 -10.23012
 Alpha  occ. eigenvalues --  -10.22954 -10.22886 -10.22764 -10.22718 -10.22611
 Alpha  occ. eigenvalues --   -6.70690  -6.69204  -4.87051  -4.86882  -4.86591
 Alpha  occ. eigenvalues --   -4.85499  -4.85401  -4.85095  -3.31751  -2.08668
 Alpha  occ. eigenvalues --   -2.08001  -2.05173  -1.01796  -0.98104  -0.96671
 Alpha  occ. eigenvalues --   -0.94553  -0.94268  -0.93864  -0.91149  -0.89954
 Alpha  occ. eigenvalues --   -0.89280  -0.88079  -0.87590  -0.87259  -0.86649
 Alpha  occ. eigenvalues --   -0.85549  -0.85452  -0.83037  -0.81544  -0.80986
 Alpha  occ. eigenvalues --   -0.80408  -0.79972  -0.77899  -0.77826  -0.77029
 Alpha  occ. eigenvalues --   -0.75982  -0.75885  -0.75552  -0.75484  -0.74376
 Alpha  occ. eigenvalues --   -0.72222  -0.71456  -0.70957  -0.70633  -0.70009
 Alpha  occ. eigenvalues --   -0.69478  -0.67633  -0.67204  -0.65998  -0.65818
 Alpha  occ. eigenvalues --   -0.65637  -0.62840  -0.62612  -0.61913  -0.61199
 Alpha  occ. eigenvalues --   -0.60389  -0.60122  -0.60028  -0.58798  -0.58028
 Alpha  occ. eigenvalues --   -0.57225  -0.57151  -0.56381  -0.56330  -0.56018
 Alpha  occ. eigenvalues --   -0.55753  -0.55298  -0.55171  -0.54326  -0.53966
 Alpha  occ. eigenvalues --   -0.53670  -0.53468  -0.53136  -0.52989  -0.52794
 Alpha  occ. eigenvalues --   -0.52717  -0.52439  -0.52041  -0.51869  -0.51387
 Alpha  occ. eigenvalues --   -0.51149  -0.50257  -0.49895  -0.49302  -0.48796
 Alpha  occ. eigenvalues --   -0.48551  -0.48344  -0.48129  -0.48026  -0.47817
 Alpha  occ. eigenvalues --   -0.47499  -0.47445  -0.47125  -0.46916  -0.46297
 Alpha  occ. eigenvalues --   -0.46212  -0.46045  -0.45910  -0.45600  -0.45551
 Alpha  occ. eigenvalues --   -0.45415  -0.44975  -0.44771  -0.44761  -0.44508
 Alpha  occ. eigenvalues --   -0.44012  -0.43879  -0.43855  -0.43732  -0.43580
 Alpha  occ. eigenvalues --   -0.43361  -0.43224  -0.43145  -0.42395  -0.42089
 Alpha  occ. eigenvalues --   -0.41593  -0.41497  -0.41287  -0.40753  -0.40307
 Alpha  occ. eigenvalues --   -0.39949  -0.39361  -0.38746  -0.38120  -0.37486
 Alpha  occ. eigenvalues --   -0.36308  -0.36213  -0.36028  -0.35639  -0.35332
 Alpha  occ. eigenvalues --   -0.34938  -0.34480  -0.33934  -0.32105  -0.31293
 Alpha  occ. eigenvalues --   -0.30613
 Alpha virt. eigenvalues --   -0.16459  -0.14871  -0.13120  -0.12313  -0.11850
 Alpha virt. eigenvalues --   -0.11705  -0.10225  -0.09539  -0.09023  -0.08836
 Alpha virt. eigenvalues --   -0.07849  -0.07413  -0.06834  -0.06153  -0.05600

 Mulliken charges:
               1
     1  P    0.275059
     2  C   -0.551585
     3  C   -0.299514
     4  H    0.187311
     5  H    0.166951
     6  C   -0.312999
     7  H    0.169262
     8  H    0.171929
     9  C   -0.020993
    10  C   -0.139886
    11  C   -0.112490
    12  H    0.132038
    13  C   -0.078714
    14  H    0.133838
    15  C   -0.089986
    16  H    0.133321
    17  C   -0.053713
    18  H    0.145270
    19  C    0.017036
    20  C   -0.055885
    21  C   -0.154814
    22  H    0.156403
    23  C   -0.089788
    24  H    0.135003
    25  C   -0.099886
    26  H    0.140241
    27  C   -0.086049
    28  H    0.132973
    29  C   -0.100458
    30  H    0.148370
    31  H    0.210421
    32  H    0.287901
    33  Rh  -0.517589
    34  C   -0.022561
    35  C   -0.070107
    36  C   -0.006790
    37  C   -0.077747
    38  C   -0.364013
    39  H    0.180557
    40  H    0.182401
    41  C   -0.228546
    42  C   -0.350627
    43  H    0.167039
    44  C   -0.231775
    45  H    0.194685
    46  H    0.168307
    47  H    0.169636
    48  H    0.170208
    49  H    0.134875
    50  H    0.166911
    51  H    0.169431
    52  H    0.137605
    53  H    0.171228
    54  P    0.336008
    55  C   -0.190224
    56  C    0.134106
    57  C    0.169718
    58  C   -0.394727
    59  C   -0.215381
    60  C    0.138951
    61  H    0.134220
    62  H    0.172625
    63  C   -0.009433
    64  C    0.031576
    65  C    0.030700
    66  C   -0.382115
    67  H    0.104295
    68  H    0.138580
    69  H    0.151999
    70  C   -0.402000
    71  H    0.139083
    72  H    0.146265
    73  H    0.137056
    74  C   -0.427659
    75  H    0.132318
    76  H    0.157096
    77  H    0.144417
    78  C   -0.360172
    79  H    0.137184
    80  H    0.124938
    81  H    0.127625
    82  C   -0.375646
    83  H    0.129337
    84  H    0.139664
    85  H    0.109290
    86  C   -0.422510
    87  H    0.136157
    88  H    0.124930
    89  H    0.144891
    90  C   -0.304173
    91  H    0.074208
    92  H    0.120337
    93  H    0.132748
    94  C   -0.385207
    95  H    0.122804
    96  H    0.134318
    97  H    0.130833
    98  C   -0.382058
    99  H    0.132283
   100  H    0.130028
   101  H    0.137666
   102  N   -0.312794
   103  H    0.236147
 Sum of Mulliken charges =   1.00000

 Dipole moment (field-independent basis, Debye):
    X=             -5.2192    Y=              0.7352    Z=              1.8772  Tot=              5.5950
 Quadrupole moment (field-independent basis, Debye-Ang):
   XX=           -246.4389   YY=           -257.9880   ZZ=           -273.5736
   XY=              1.1618   XZ=              5.8578   YZ=             -0.3298

 Summary of Natural Population Analysis:

                                       Natural Population
                Natural  -----------------------------------------------
    Atom  No    Charge         Core      Valence    Rydberg      Total
 -----------------------------------------------------------------------
      P    1    1.07724      9.99674     3.87848    0.04755    13.92276
      C    2   -0.77471      1.99945     4.75512    0.02014     6.77471
      C    3   -0.65851      1.99940     4.64681    0.01231     6.65851
      H    4    0.24748      0.00000     0.75105    0.00147     0.75252
      H    5    0.23751      0.00000     0.76113    0.00136     0.76249
      C    6   -0.38430      1.99939     4.37390    0.01101     6.38430
      H    7    0.22860      0.00000     0.76976    0.00164     0.77140
      H    8    0.21292      0.00000     0.78538    0.00170     0.78708
      C    9   -0.25315      1.99932     4.23667    0.01715     6.25315
      C   10    0.00626      1.99901     3.97453    0.02021     5.99374
      C   11   -0.20455      1.99907     4.19081    0.01467     6.20455
      H   12    0.21724      0.00000     0.78081    0.00195     0.78276
      C   13   -0.16702      1.99921     4.15325    0.01455     6.16702
      H   14    0.22371      0.00000     0.77513    0.00115     0.77629
      C   15   -0.19697      1.99919     4.18307    0.01470     6.19697
      H   16    0.22416      0.00000     0.77464    0.00120     0.77584
      C   17   -0.17815      1.99909     4.16256    0.01651     6.17815
      H   18    0.21515      0.00000     0.78261    0.00224     0.78485
      C   19   -0.36757      1.99891     4.34194    0.02672     6.36757
      C   20   -0.33677      1.99900     4.31510    0.02267     6.33677
      C   21   -0.20006      1.99909     4.18558    0.01539     6.20006
      H   22    0.21046      0.00000     0.78750    0.00204     0.78954
      C   23   -0.18808      1.99920     4.17428    0.01460     6.18808
      H   24    0.22324      0.00000     0.77553    0.00123     0.77676
      C   25   -0.17995      1.99920     4.16617    0.01457     6.17995
      H   26    0.22398      0.00000     0.77485    0.00117     0.77602
      C   27   -0.18848      1.99920     4.17469    0.01460     6.18848
      H   28    0.22209      0.00000     0.77669    0.00122     0.77791
      C   29   -0.19772      1.99908     4.18331    0.01533     6.19772
      H   30    0.21078      0.00000     0.78725    0.00197     0.78922
      H   31    0.24078      0.00000     0.75683    0.00238     0.75922
      H   32    0.27814      0.00000     0.71942    0.00244     0.72186
     Rh   33   -0.39915     35.98513     9.38338    0.03064    45.39915
      C   34   -0.17477      1.99905     4.15605    0.01966     6.17477
      C   35   -0.15032      1.99906     4.13141    0.01985     6.15032
      C   36   -0.17460      1.99906     4.15601    0.01953     6.17460
      C   37   -0.15760      1.99906     4.13844    0.02009     6.15760
      C   38   -0.42247      1.99936     4.41129    0.01182     6.42247
      H   39    0.21819      0.00000     0.77983    0.00198     0.78181
      H   40    0.22316      0.00000     0.77487    0.00197     0.77684
      C   41   -0.41874      1.99935     4.40676    0.01263     6.41874
      C   42   -0.42327      1.99936     4.41212    0.01178     6.42327
      H   43    0.22621      0.00000     0.77226    0.00153     0.77379
      C   44   -0.41892      1.99935     4.40694    0.01263     6.41892
      H   45    0.22841      0.00000     0.76918    0.00241     0.77159
      H   46    0.22808      0.00000     0.77042    0.00150     0.77192
      H   47    0.21508      0.00000     0.78289    0.00202     0.78492
      H   48    0.23359      0.00000     0.76449    0.00192     0.76641
      H   49    0.21830      0.00000     0.78009    0.00162     0.78170
      H   50    0.21461      0.00000     0.78342    0.00197     0.78539
      H   51    0.22920      0.00000     0.76931    0.00149     0.77080
      H   52    0.21728      0.00000     0.78089    0.00183     0.78272
      H   53    0.23319      0.00000     0.76489    0.00193     0.76681
      P   54    1.32401      9.99615     3.61851    0.06133    13.67599
      C   55    0.10134      1.99877     3.87783    0.02206     5.89866
      C   56    0.00193      1.99893     3.97636    0.02279     5.99807
      C   57   -0.01259      1.99894     3.99305    0.02060     6.01259
      C   58   -0.20666      1.99900     4.19478    0.01289     6.20666
      C   59   -0.23048      1.99901     4.21799    0.01348     6.23048
      C   60    0.01399      1.99901     3.96549    0.02151     5.98601
      H   61    0.20627      0.00000     0.79068    0.00305     0.79373
      H   62    0.21716      0.00000     0.77956    0.00327     0.78284
      C   63   -0.05474      1.99939     4.04141    0.01393     6.05474
      C   64   -0.04837      1.99940     4.03435    0.01462     6.04837
      C   65   -0.05709      1.99939     4.04465    0.01304     6.05709
      C   66   -0.57892      1.99937     4.57132    0.00823     6.57892
      H   67    0.17628      0.00000     0.82241    0.00131     0.82372
      H   68    0.21012      0.00000     0.78849    0.00139     0.78988
      H   69    0.21924      0.00000     0.77950    0.00126     0.78076
      C   70   -0.58193      1.99935     4.57390    0.00867     6.58193
      H   71    0.20976      0.00000     0.78867    0.00158     0.79024
      H   72    0.19926      0.00000     0.79855    0.00219     0.80074
      H   73    0.20350      0.00000     0.79421    0.00229     0.79650
      C   74   -0.59179      1.99939     4.58362    0.00878     6.59179
      H   75    0.20466      0.00000     0.79406    0.00128     0.79534
      H   76    0.21375      0.00000     0.78494    0.00131     0.78625
      H   77    0.21177      0.00000     0.78686    0.00137     0.78823
      C   78   -0.58171      1.99938     4.57445    0.00787     6.58171
      H   79    0.20805      0.00000     0.79061    0.00134     0.79195
      H   80    0.20165      0.00000     0.79715    0.00120     0.79835
      H   81    0.20827      0.00000     0.79046    0.00127     0.79173
      C   82   -0.58078      1.99939     4.57365    0.00774     6.58078
      H   83    0.20243      0.00000     0.79641    0.00116     0.79757
      H   84    0.20918      0.00000     0.78947    0.00136     0.79082
      H   85    0.19904      0.00000     0.79962    0.00134     0.80096
      C   86   -0.59368      1.99940     4.58600    0.00828     6.59368
      H   87    0.20583      0.00000     0.79284    0.00134     0.79417
      H   88    0.20058      0.00000     0.79801    0.00140     0.79942
      H   89    0.21446      0.00000     0.78423    0.00131     0.78554
      C   90   -0.58047      1.99937     4.57260    0.00850     6.58047
      H   91    0.20131      0.00000     0.79706    0.00163     0.79869
      H   92    0.20340      0.00000     0.79524    0.00136     0.79660
      H   93    0.20452      0.00000     0.79406    0.00142     0.79548
      C   94   -0.58460      1.99937     4.57646    0.00877     6.58460
      H   95    0.20355      0.00000     0.79442    0.00203     0.79645
      H   96    0.20712      0.00000     0.79143    0.00145     0.79288
      H   97    0.20153      0.00000     0.79729    0.00118     0.79847
      C   98   -0.57951      1.99938     4.57205    0.00808     6.57951
      H   99    0.20830      0.00000     0.79039    0.00130     0.79170
      H  100    0.20235      0.00000     0.79640    0.00125     0.79765
      H  101    0.20741      0.00000     0.79120    0.00138     0.79259
      N  102   -0.90578      1.99953     5.88511    0.02114     7.90578
      H  103    0.39785      0.00000     0.59839    0.00376     0.60215
 =======================================================================
   * Total *    1.00000    141.94427   247.17603    0.87970   390.00000

 Normal termination of Gaussian 16 at Wed Jan 22 19:05:33 2025.
