 Gaussian 16, Revision B.01,
 Gaussian 16:  ES64L-G16RevB.01 20-Dec-2017

 ------------------------------------------
 # nmr=giao b3lyp/genecp pop=nbo scfcyc=200
 ------------------------------------------

 --------
 MS-5_SPE
 --------
 Symbolic Z-matrix:
 Charge =  1 Multiplicity = 1

                         Standard orientation:
 ---------------------------------------------------------------------
 Center     Atomic      Atomic             Coordinates (Angstroms)
 Number     Number       Type             X           Y           Z
 ---------------------------------------------------------------------
      1         15           0        0.448269    1.371791    0.155870
      2         15           0        0.416370   -1.452659    0.055190
      3          7           0        3.409409   -0.224648   -1.039660
      4          6           0        1.609649   -0.075229    0.596630
      5          6           0        3.070459   -0.057848    0.245740
      6          6           0        4.703179   -0.197607   -1.366550
      7          6           0        5.723989   -0.003627   -0.443100
      8          6           0        5.376239    0.168193    0.890400
      9          6           0        4.033089    0.138703    1.241710
     10          6           0        0.270528    2.022491    2.919010
     11          6           0        0.623178    2.625991    1.555320
     12          6           0       -0.224193    3.876751    1.281210
     13          6           0        0.138728    2.802071   -2.300730
     14          6           0        1.194868    2.168811   -1.388250
     15          6           0        2.354988    3.131092   -1.102580
     16          6           0        0.074570   -2.210289    2.773810
     17          6           0        0.541221   -2.752599    1.418030
     18          6           0        1.929101   -3.396048    1.524920
     19          6           0        0.800050   -1.471309   -2.759130
     20          6           0        0.995670   -2.334289   -1.509580
     21          6           0        0.270291   -3.680099   -1.664050
     22          1           0        1.524119   -0.123729    1.683300
     23          1           0        4.931319   -0.339297   -2.417550
     24          1           0        6.757239    0.008774   -0.763290
     25          1           0        6.137079    0.319284    1.645970
     26          1           0        3.735599    0.265282    2.275350
     27          1           0        1.677448    2.915091    1.562340
     28          1           0        0.344298    2.795431    3.687190
     29          1           0        0.944409    1.217361    3.213440
     30          1           0       -0.748602    1.631670    2.935650
     31          1           0       -1.290653    3.646130    1.264190
     32          1           0        0.029907    4.363291    0.340790
     33          1           0       -0.062573    4.605361    2.078650
     34          1           0        1.612379    1.304031   -1.905580
     35          1           0       -0.355553    3.657891   -1.837110
     36          1           0       -0.624652    2.081010   -2.592460
     37          1           0        0.620688    3.163321   -3.212080
     38          1           0        2.827148    3.404032   -2.049200
     39          1           0        3.125448    2.685702   -0.473480
     40          1           0        2.020477    4.055952   -0.631490
     41          1           0       -0.175969   -3.515079    1.101170
     42          1           0       -0.029749   -3.035929    3.480920
     43          1           0       -0.884910   -1.697110    2.706300
     44          1           0        0.799240   -1.515939    3.204400
     45          1           0        2.684531   -2.668718    1.827990
     46          1           0        2.258101   -3.852078    0.591620
     47          1           0        1.909911   -4.181238    2.284490
     48          1           0        2.063810   -2.513758   -1.377730
     49          1           0        1.088810   -2.047019   -3.641690
     50          1           0        1.427490   -0.584069   -2.729570
     51          1           0       -0.242720   -1.171709   -2.881740
     52          1           0       -0.812699   -3.556340   -1.733440
     53          1           0        0.481191   -4.379009   -0.855840
     54          1           0        0.598781   -4.151139   -2.592780
     55         45           0       -1.470371   -0.031980   -0.047050
     56          6           0       -3.076080   -1.397661   -0.892880
     57          6           0       -3.012420   -1.591571    0.472540
     58          6           0       -3.204041    1.306499    0.629530
     59          6           0       -2.995352    1.509979   -0.716360
     60          6           0       -4.139690   -0.599871   -1.624300
     61          1           0       -2.511180   -2.085431   -1.511490
     62          1           0       -2.442570   -2.445211    0.823660
     63          6           0       -3.924720   -0.987811    1.510920
     64          6           0       -4.320631    0.477349    1.235150
     65          1           0       -2.721602    1.996489    1.311680
     66          6           0       -3.761571    0.879479   -1.851790
     67          1           0       -2.398562    2.368860   -1.000490
     68          1           0       -4.312610   -1.065181   -2.596050
     69          1           0       -5.084860   -0.672052   -1.086580
     70          1           0       -4.827230   -1.603292    1.613600
     71          1           0       -3.416550   -1.044891    2.476100
     72          1           0       -5.197361    0.519048    0.589480
     73          1           0       -4.621411    0.938418    2.177450
     74          1           0       -3.146741    0.956449   -2.751320
     75          1           0       -4.666021    1.464698   -2.059540
 ---------------------------------------------------------------------

 SCF Done:  E(RB3LYP) =  -1866.20504048     A.U. after   16 cycles

      1  P    Isotropic =   276.6843   Anisotropy =    57.6528

      2  P    Isotropic =   262.3511   Anisotropy =    90.8092

      3  N    Isotropic =   -90.1070   Anisotropy =   548.2639

      4  C    Isotropic =   124.1394   Anisotropy =    64.9068

      5  C    Isotropic =    22.3585   Anisotropy =   172.2751

      6  C    Isotropic =    27.7218   Anisotropy =   177.5554

      7  C    Isotropic =    55.2526   Anisotropy =   183.1737

      8  C    Isotropic =    40.1616   Anisotropy =   207.9015

      9  C    Isotropic =    56.8656   Anisotropy =   154.3721

     10  C    Isotropic =   163.9984   Anisotropy =    29.4655

     11  C    Isotropic =   150.3183   Anisotropy =    19.6247

     12  C    Isotropic =   165.1260   Anisotropy =    31.6910

     13  C    Isotropic =   161.1760   Anisotropy =    30.0607

     14  C    Isotropic =   149.6523   Anisotropy =    24.2426

     15  C    Isotropic =   166.0297   Anisotropy =    29.6455

     16  C    Isotropic =   163.4024   Anisotropy =    31.8004

     17  C    Isotropic =   146.6740   Anisotropy =    22.5944

     18  C    Isotropic =   166.4764   Anisotropy =    30.0934

     19  C    Isotropic =   162.0370   Anisotropy =    33.7566

     20  C    Isotropic =   150.5079   Anisotropy =    18.8785

     21  C    Isotropic =   166.0416   Anisotropy =    30.2534

     22  H    Isotropic =    27.1005   Anisotropy =     2.9525

     23  H    Isotropic =    23.0246   Anisotropy =     7.5569

     24  H    Isotropic =    24.4067   Anisotropy =     3.4273

     25  H    Isotropic =    23.9751   Anisotropy =     5.7424

     26  H    Isotropic =    24.7715   Anisotropy =    10.6932

     27  H    Isotropic =    29.6258   Anisotropy =     5.1995

     28  H    Isotropic =    30.4675   Anisotropy =    11.8552

     29  H    Isotropic =    30.3834   Anisotropy =     7.3463

     30  H    Isotropic =    30.5182   Anisotropy =     5.5411

     31  H    Isotropic =    31.3159   Anisotropy =     5.3124

     32  H    Isotropic =    30.8086   Anisotropy =     7.5053

     33  H    Isotropic =    30.6310   Anisotropy =    12.5659

     34  H    Isotropic =    28.4639   Anisotropy =     7.2463

     35  H    Isotropic =    30.7255   Anisotropy =     6.3599

     36  H    Isotropic =    30.0661   Anisotropy =     7.0229

     37  H    Isotropic =    30.4689   Anisotropy =    11.4082

     38  H    Isotropic =    31.0391   Anisotropy =    11.4638

     39  H    Isotropic =    32.2638   Anisotropy =     7.4752

     40  H    Isotropic =    31.1561   Anisotropy =     7.8719

     41  H    Isotropic =    29.7338   Anisotropy =     4.7744

     42  H    Isotropic =    30.2853   Anisotropy =    11.6335

     43  H    Isotropic =    29.9952   Anisotropy =     7.9031

     44  H    Isotropic =    30.6368   Anisotropy =     5.6163

     45  H    Isotropic =    31.4467   Anisotropy =     6.7801

     46  H    Isotropic =    30.9751   Anisotropy =     7.5601

     47  H    Isotropic =    30.7528   Anisotropy =    12.6640

     48  H    Isotropic =    29.2129   Anisotropy =     6.1364

     49  H    Isotropic =    30.4317   Anisotropy =    11.9320

     50  H    Isotropic =    29.2720   Anisotropy =     6.6831

     51  H    Isotropic =    30.2854   Anisotropy =     5.2390

     52  H    Isotropic =    31.3039   Anisotropy =     5.7942

     53  H    Isotropic =    30.8755   Anisotropy =     8.6806

     54  H    Isotropic =    30.6475   Anisotropy =    12.3500

     55  Rh   Isotropic =  -304.8857   Anisotropy =   355.4654

     56  C    Isotropic =    80.2872   Anisotropy =   120.6377

     57  C    Isotropic =    80.4973   Anisotropy =   112.6142

     58  C    Isotropic =    77.1032   Anisotropy =   125.0843

     59  C    Isotropic =    79.7719   Anisotropy =   115.8211

     60  C    Isotropic =   153.9188   Anisotropy =    25.6572

     61  H    Isotropic =    26.8230   Anisotropy =     6.7405

     62  H    Isotropic =    26.7951   Anisotropy =     3.8428

     63  C    Isotropic =   147.4629   Anisotropy =    29.7351

     64  C    Isotropic =   153.9037   Anisotropy =    25.8685

     65  H    Isotropic =    26.5388   Anisotropy =     6.1818

     66  C    Isotropic =   148.6376   Anisotropy =    28.9217

     67  H    Isotropic =    26.3424   Anisotropy =     3.6341

     68  H    Isotropic =    29.7934   Anisotropy =    11.6298

     69  H    Isotropic =    29.7677   Anisotropy =     9.7217

     70  H    Isotropic =    29.0804   Anisotropy =    12.6570

     71  H    Isotropic =    29.1188   Anisotropy =     7.2376

     72  H    Isotropic =    29.7527   Anisotropy =     9.5869

     73  H    Isotropic =    29.8098   Anisotropy =    11.5566

     74  H    Isotropic =    29.1306   Anisotropy =     7.3221

     75  H    Isotropic =    29.1242   Anisotropy =    12.7150

 The electronic state is 1-A.
 Alpha  occ. eigenvalues --  -77.22928 -77.22918 -14.41934 -10.33052 -10.31296
 Alpha  occ. eigenvalues --  -10.31218 -10.30211 -10.30169 -10.29639 -10.29616
 Alpha  occ. eigenvalues --  -10.29570 -10.29213 -10.29120 -10.29078 -10.29063
 Alpha  occ. eigenvalues --  -10.28977 -10.28447 -10.27708 -10.27606 -10.27450
 Alpha  occ. eigenvalues --  -10.27399 -10.27247 -10.27147 -10.27135 -10.26882
 Alpha  occ. eigenvalues --  -10.26819 -10.26514 -10.26476 -10.25806  -6.68922
 Alpha  occ. eigenvalues --   -6.68920  -4.85228  -4.85224  -4.85090  -4.85086
 Alpha  occ. eigenvalues --   -4.84837  -4.84831  -3.31389  -2.08269  -2.07625
 Alpha  occ. eigenvalues --   -2.04827  -1.05764  -0.94637  -0.93073  -0.91654
 Alpha  occ. eigenvalues --   -0.91249  -0.89581  -0.89346  -0.89313  -0.89206
 Alpha  occ. eigenvalues --   -0.88165  -0.83661  -0.80517  -0.79773  -0.79641
 Alpha  occ. eigenvalues --   -0.79163  -0.78853  -0.77969  -0.75593  -0.75148
 Alpha  occ. eigenvalues --   -0.74165  -0.70951  -0.70704  -0.69668  -0.69318
 Alpha  occ. eigenvalues --   -0.66088  -0.65097  -0.64115  -0.62744  -0.61900
 Alpha  occ. eigenvalues --   -0.60345  -0.59611  -0.58424  -0.57755  -0.57640
 Alpha  occ. eigenvalues --   -0.57134  -0.56773  -0.56317  -0.56076  -0.55463
 Alpha  occ. eigenvalues --   -0.54687  -0.54460  -0.53786  -0.52986  -0.52830
 Alpha  occ. eigenvalues --   -0.52732  -0.52636  -0.51969  -0.51589  -0.51261
 Alpha  occ. eigenvalues --   -0.51138  -0.50672  -0.50235  -0.49700  -0.49372
 Alpha  occ. eigenvalues --   -0.49044  -0.48943  -0.48316  -0.47995  -0.47870
 Alpha  occ. eigenvalues --   -0.47397  -0.46804  -0.46396  -0.46264  -0.46086
 Alpha  occ. eigenvalues --   -0.45816  -0.45773  -0.45498  -0.45424  -0.44904
 Alpha  occ. eigenvalues --   -0.44218  -0.43566  -0.43247  -0.43053  -0.42019
 Alpha  occ. eigenvalues --   -0.41425  -0.41139  -0.40552  -0.39636  -0.37291
 Alpha  occ. eigenvalues --   -0.36539  -0.36230  -0.35869  -0.34963  -0.34474
 Alpha  occ. eigenvalues --   -0.33623  -0.30654
 Alpha virt. eigenvalues --   -0.16175  -0.14660  -0.13632  -0.12739  -0.09537
 Alpha virt. eigenvalues --   -0.08639  -0.08486  -0.07538  -0.06721  -0.06517
 Alpha virt. eigenvalues --   -0.06259  -0.04942  -0.04744  -0.04564  -0.04374

 Mulliken charges:
               1
     1  P    0.424171
     2  P    0.465204
     3  N   -0.058958
     4  C   -0.549135
     5  C   -0.052502
     6  C   -0.124449
     7  C   -0.028506
     8  C   -0.148388
     9  C   -0.067131
    10  C   -0.397695
    11  C   -0.164371
    12  C   -0.403830
    13  C   -0.420634
    14  C   -0.149345
    15  C   -0.386138
    16  C   -0.402663
    17  C   -0.246199
    18  C   -0.366906
    19  C   -0.419400
    20  C   -0.107068
    21  C   -0.410371
    22  H    0.169021
    23  H    0.121060
    24  H    0.158434
    25  H    0.136438
    26  H    0.149743
    27  H    0.177085
    28  H    0.160924
    29  H    0.125317
    30  H    0.131528
    31  H    0.141166
    32  H    0.141783
    33  H    0.157157
    34  H    0.152725
    35  H    0.134653
    36  H    0.145062
    37  H    0.155204
    38  H    0.151560
    39  H    0.159916
    40  H    0.137744
    41  H    0.181882
    42  H    0.161090
    43  H    0.140761
    44  H    0.125217
    45  H    0.138365
    46  H    0.147551
    47  H    0.152487
    48  H    0.184879
    49  H    0.151528
    50  H    0.168942
    51  H    0.120568
    52  H    0.136414
    53  H    0.149781
    54  H    0.156617
    55  Rh  -0.510352
    56  C   -0.026246
    57  C   -0.095949
    58  C   -0.024747
    59  C   -0.096914
    60  C   -0.345378
    61  H    0.167609
    62  H    0.189392
    63  C   -0.232326
    64  C   -0.344251
    65  H    0.157879
    66  C   -0.228592
    67  H    0.197342
    68  H    0.169697
    69  H    0.168662
    70  H    0.172167
    71  H    0.129795
    72  H    0.170221
    73  H    0.169141
    74  H    0.131681
    75  H    0.172878
 Sum of Mulliken charges =   1.00000

 Dipole moment (field-independent basis, Debye):
    X=              1.6570    Y=              0.0088    Z=              1.2315  Tot=              2.0645
 Quadrupole moment (field-independent basis, Debye-Ang):
   XX=           -157.0739   YY=           -186.6133   ZZ=           -193.7075
   XY=              1.1808   XZ=              2.2056   YZ=              0.9369

 Summary of Natural Population Analysis:

                                       Natural Population
                Natural  -----------------------------------------------
    Atom  No    Charge         Core      Valence    Rydberg      Total
 -----------------------------------------------------------------------
      P    1    1.09277      9.99685     3.86454    0.04584    13.90723
      P    2    1.11760      9.99678     3.83771    0.04790    13.88240
      N    3   -0.45089      1.99941     5.43127    0.02021     7.45089
      C    4   -0.79314      1.99927     4.76892    0.02495     6.79314
      C    5    0.16564      1.99907     3.80539    0.02990     5.83436
      C    6    0.04588      1.99924     3.93303    0.02184     5.95412
      C    7   -0.23604      1.99916     4.22283    0.01404     6.23604
      C    8   -0.14973      1.99920     4.13600    0.01453     6.14973
      C    9   -0.24039      1.99906     4.22724    0.01409     6.24039
      C   10   -0.58966      1.99941     4.58293    0.00732     6.58966
      C   11   -0.47495      1.99940     4.46065    0.01490     6.47495
      C   12   -0.59484      1.99941     4.58780    0.00764     6.59484
      C   13   -0.59022      1.99941     4.58374    0.00707     6.59022
      C   14   -0.47627      1.99939     4.46125    0.01563     6.47627
      C   15   -0.60017      1.99940     4.59149    0.00928     6.60017
      C   16   -0.59105      1.99941     4.58410    0.00754     6.59105
      C   17   -0.47039      1.99940     4.45674    0.01424     6.47039
      C   18   -0.60166      1.99941     4.59303    0.00922     6.60166
      C   19   -0.59152      1.99940     4.58441    0.00771     6.59152
      C   20   -0.47215      1.99938     4.45680    0.01596     6.47215
      C   21   -0.59651      1.99941     4.58959    0.00752     6.59651
      H   22    0.25546      0.00000     0.74066    0.00388     0.74454
      H   23    0.20106      0.00000     0.79732    0.00162     0.79894
      H   24    0.23039      0.00000     0.76843    0.00118     0.76961
      H   25    0.22678      0.00000     0.77202    0.00120     0.77322
      H   26    0.21503      0.00000     0.78335    0.00162     0.78497
      H   27    0.22420      0.00000     0.77334    0.00246     0.77580
      H   28    0.22485      0.00000     0.77361    0.00154     0.77515
      H   29    0.19959      0.00000     0.79904    0.00136     0.80041
      H   30    0.21269      0.00000     0.78584    0.00147     0.78731
      H   31    0.20436      0.00000     0.79407    0.00157     0.79564
      H   32    0.20960      0.00000     0.78855    0.00185     0.79040
      H   33    0.22516      0.00000     0.77333    0.00151     0.77484
      H   34    0.24634      0.00000     0.75128    0.00238     0.75366
      H   35    0.20135      0.00000     0.79699    0.00166     0.79865
      H   36    0.21439      0.00000     0.78402    0.00159     0.78561
      H   37    0.22185      0.00000     0.77660    0.00155     0.77815
      H   38    0.22463      0.00000     0.77385    0.00153     0.77537
      H   39    0.20988      0.00000     0.78817    0.00195     0.79012
      H   40    0.20416      0.00000     0.79422    0.00162     0.79584
      H   41    0.22449      0.00000     0.77359    0.00192     0.77551
      H   42    0.22499      0.00000     0.77354    0.00148     0.77501
      H   43    0.21748      0.00000     0.78079    0.00173     0.78252
      H   44    0.19660      0.00000     0.80185    0.00155     0.80340
      H   45    0.20478      0.00000     0.79344    0.00178     0.79522
      H   46    0.21150      0.00000     0.78696    0.00154     0.78850
      H   47    0.22422      0.00000     0.77425    0.00153     0.77578
      H   48    0.23624      0.00000     0.76124    0.00252     0.76376
      H   49    0.21848      0.00000     0.77997    0.00155     0.78152
      H   50    0.22270      0.00000     0.77561    0.00169     0.77730
      H   51    0.20827      0.00000     0.79023    0.00150     0.79173
      H   52    0.20191      0.00000     0.79652    0.00157     0.79809
      H   53    0.20850      0.00000     0.79000    0.00150     0.79150
      H   54    0.22728      0.00000     0.77120    0.00152     0.77272
     Rh   55   -0.37627     35.98619     9.36057    0.02951    45.37627
      C   56   -0.17645      1.99910     4.15767    0.01968     6.17645
      C   57   -0.17006      1.99910     4.15115    0.01980     6.17006
      C   58   -0.17260      1.99909     4.15361    0.01990     6.17260
      C   59   -0.17745      1.99910     4.15827    0.02007     6.17745
      C   60   -0.42288      1.99935     4.41157    0.01196     6.42288
      H   61    0.22098      0.00000     0.77672    0.00231     0.77902
      H   62    0.21908      0.00000     0.77878    0.00213     0.78092
      C   63   -0.41587      1.99934     4.40372    0.01280     6.41587
      C   64   -0.42420      1.99935     4.41274    0.01211     6.42420
      H   65    0.21879      0.00000     0.77884    0.00237     0.78121
      C   66   -0.41704      1.99934     4.40484    0.01285     6.41704
      H   67    0.22539      0.00000     0.77242    0.00219     0.77461
      H   68    0.22890      0.00000     0.76961    0.00149     0.77110
      H   69    0.21593      0.00000     0.78214    0.00193     0.78407
      H   70    0.23317      0.00000     0.76494    0.00188     0.76683
      H   71    0.21436      0.00000     0.78376    0.00188     0.78564
      H   72    0.21639      0.00000     0.78167    0.00194     0.78361
      H   73    0.22834      0.00000     0.77016    0.00150     0.77166
      H   74    0.21633      0.00000     0.78179    0.00188     0.78367
      H   75    0.23365      0.00000     0.76446    0.00189     0.76635
 =======================================================================
   * Total *    1.00000    109.96085   171.44280    0.59635   282.00000

 Normal termination of Gaussian 16 at Wed Jan 22 02:21:28 2025.
