 Gaussian 16, Revision B.01,
 Gaussian 16:  ES64L-G16RevB.01 20-Dec-2017

 ------------------------------------------
 # nmr=giao b3lyp/genecp pop=nbo scfcyc=200
 ------------------------------------------

 ---------
 MS-58_SPE
 ---------
 Symbolic Z-matrix:
 Charge =  1 Multiplicity = 1

                         Standard orientation:
 ---------------------------------------------------------------------
 Center     Atomic      Atomic             Coordinates (Angstroms)
 Number     Number       Type             X           Y           Z
 ---------------------------------------------------------------------
      1         15           0        0.523830   -1.378170    0.058070
      2         15           0        0.798230    1.405580   -0.048720
      3          6           0       -0.601040    0.125420   -0.381170
      4          6           0        0.264870   -2.694760   -1.209100
      5          6           0       -0.147450   -3.990630   -0.890900
      6          6           0       -0.258830   -4.955910   -1.888440
      7          6           0        0.039950   -4.640510   -3.208280
      8          6           0        0.464980   -3.354320   -3.531740
      9          6           0        0.585950   -2.391430   -2.538780
     10          6           0       -0.069760   -2.060130    1.659050
     11          6           0        0.806920   -2.124570    2.746240
     12          6           0        0.377170   -2.626530    3.970650
     13          6           0       -0.934110   -3.063550    4.122090
     14          6           0       -1.817250   -2.995370    3.047750
     15          6           0       -1.391290   -2.496950    1.822220
     16          6           0        0.648851    2.636920   -1.408850
     17          6           0        1.480581    2.512010   -2.526030
     18          6           0        1.345991    3.378740   -3.605880
     19          6           0        0.380091    4.378670   -3.579390
     20          6           0       -0.458719    4.503380   -2.475420
     21          6           0       -0.331459    3.636370   -1.396940
     22          6           0        0.502111    2.328620    1.520670
     23          6           0        0.062440    1.659980    2.669350
     24          6           0       -0.043369    2.333030    3.880760
     25          6           0        0.304681    3.677280    3.970140
     26          6           0        0.766721    4.343210    2.840900
     27          6           0        0.867881    3.675670    1.624310
     28          1           0       -0.629130    0.108220   -1.471240
     29          1           0       -0.378970   -4.257240    0.130820
     30          1           0       -0.579580   -5.956910   -1.628250
     31          1           0       -0.049050   -5.393500   -3.981060
     32          1           0        0.709070   -3.103840   -4.556580
     33          1           0        0.940730   -1.401200   -2.801720
     34          1           0        1.823530   -1.771100    2.635270
     35          1           0        1.066750   -2.675570    4.804050
     36          1           0       -1.268860   -3.455880    5.074230
     37          1           0       -2.840310   -3.330760    3.163590
     38          1           0       -2.088100   -2.444640    0.997120
     39          1           0        2.232500    1.733430   -2.550430
     40          1           0        1.998671    3.275630   -4.463740
     41          1           0        0.279031    5.058020   -4.416380
     42          1           0       -1.216849    5.276290   -2.454760
     43          1           0       -0.995339    3.740900   -0.549090
     44          1           0       -0.186260    0.608030    2.635650
     45          1           0       -0.393850    1.802580    4.757390
     46          1           0        0.223151    4.199280    4.915120
     47          1           0        1.050141    5.386540    2.901830
     48          1           0        1.230801    4.213530    0.758950
     49         45           0        2.539590   -0.165940    0.047810
     50          6           0        4.367390    1.132479   -0.469100
     51          6           0        4.180670    1.131919    0.895660
     52          6           0        4.054340   -1.785981    0.644310
     53          6           0        3.939250   -1.755391   -0.728670
     54          6           0        5.393600    0.308329   -1.223990
     55          1           0        3.947621    1.969429   -1.014800
     56          1           0        3.642651    1.972579    1.322260
     57          6           0        4.898800    0.276859    1.909920
     58          6           0        5.179880   -1.171991    1.455620
     59          1           0        3.456630   -2.527931    1.161970
     60          6           0        4.862110   -1.061061   -1.699470
     61          1           0        3.275160   -2.482321   -1.184500
     62          1           0        5.716770    0.874719   -2.099180
     63          1           0        6.284070    0.177749   -0.609560
     64          1           0        5.839500    0.763599    2.197070
     65          1           0        4.288470    0.256749    2.815510
     66          1           0        6.109730   -1.219301    0.889300
     67          1           0        5.341510   -1.785211    2.343870
     68          1           0        4.316750   -0.927561   -2.636550
     69          1           0        5.704550   -1.722371   -1.938810
     70          7           0       -4.221870    0.849180    0.375830
     71          1           0       -3.960460    1.301340    1.239230
     72          6           0       -1.942620    0.310040    0.207130
     73          1           0       -1.953430    0.451990    1.281790
     74          6           0       -3.154380    0.403520   -0.401790
     75          6           0       -3.480230    0.202120   -1.879760
     76          1           0       -4.567130    0.234350   -1.947980
     77          6           0       -3.045730   -1.149790   -2.458320
     78          1           0       -1.964110   -1.248170   -2.536330
     79          1           0       -3.408300   -1.983910   -1.855050
     80          1           0       -3.455650   -1.266120   -3.463600
     81          6           0       -2.973770    1.377650   -2.735270
     82          1           0       -3.315769    2.331610   -2.331900
     83          1           0       -1.885290    1.409320   -2.795720
     84          1           0       -3.360360    1.285430   -3.752480
     85          6           0       -5.574090    0.431920    0.328200
     86          6           0       -6.561350    1.328590    0.749790
     87          6           0       -5.950520   -0.850050   -0.080810
     88          6           0       -7.896660    0.949180    0.758590
     89          1           0       -6.275719    2.327110    1.059570
     90          6           0       -7.293220   -1.213070   -0.095750
     91          1           0       -5.195320   -1.568780   -0.370120
     92          6           0       -8.271830   -0.319950    0.325720
     93          1           0       -8.648880    1.653771    1.090830
     94          1           0       -7.571250   -2.207990   -0.421240
     95          1           0       -9.314540   -0.609739    0.321820
 ---------------------------------------------------------------------

 SCF Done:  E(RB3LYP) =  -2553.50170450     A.U. after   18 cycles

      1  P    Isotropic =   281.7521   Anisotropy =    84.6537

      2  P    Isotropic =   274.6226   Anisotropy =    97.6263

      3  C    Isotropic =   101.9941   Anisotropy =    61.8619

      4  C    Isotropic =    42.7809   Anisotropy =   173.3602

      5  C    Isotropic =    47.1667   Anisotropy =   191.1828

      6  C    Isotropic =    49.3078   Anisotropy =   188.5448

      7  C    Isotropic =    46.7818   Anisotropy =   194.8815

      8  C    Isotropic =    48.7847   Anisotropy =   189.1182

      9  C    Isotropic =    46.5537   Anisotropy =   186.5260

     10  C    Isotropic =    52.4952   Anisotropy =   165.8715

     11  C    Isotropic =    40.2317   Anisotropy =   181.6146

     12  C    Isotropic =    48.9000   Anisotropy =   188.6053

     13  C    Isotropic =    44.6311   Anisotropy =   198.8806

     14  C    Isotropic =    49.8126   Anisotropy =   188.1167

     15  C    Isotropic =    41.6266   Anisotropy =   193.8883

     16  C    Isotropic =    46.2883   Anisotropy =   176.8128

     17  C    Isotropic =    43.6913   Anisotropy =   178.0358

     18  C    Isotropic =    48.8652   Anisotropy =   188.1497

     19  C    Isotropic =    44.7400   Anisotropy =   197.7311

     20  C    Isotropic =    49.0433   Anisotropy =   189.8053

     21  C    Isotropic =    44.5590   Anisotropy =   192.9649

     22  C    Isotropic =    47.3946   Anisotropy =   167.0847

     23  C    Isotropic =    46.3068   Anisotropy =   188.5613

     24  C    Isotropic =    50.2636   Anisotropy =   187.4629

     25  C    Isotropic =    47.4377   Anisotropy =   194.1340

     26  C    Isotropic =    48.5893   Anisotropy =   189.9271

     27  C    Isotropic =    46.9439   Anisotropy =   189.9358

     28  H    Isotropic =    26.5048   Anisotropy =     6.3712

     29  H    Isotropic =    24.6698   Anisotropy =    12.8217

     30  H    Isotropic =    24.3308   Anisotropy =     6.2699

     31  H    Isotropic =    24.1520   Anisotropy =     3.6743

     32  H    Isotropic =    24.0251   Anisotropy =     7.0638

     33  H    Isotropic =    23.6813   Anisotropy =     9.4999

     34  H    Isotropic =    23.3291   Anisotropy =    10.1666

     35  H    Isotropic =    23.8863   Anisotropy =     6.7280

     36  H    Isotropic =    23.8094   Anisotropy =     3.7117

     37  H    Isotropic =    23.9888   Anisotropy =     6.4965

     38  H    Isotropic =    23.7271   Anisotropy =     9.2151

     39  H    Isotropic =    23.2987   Anisotropy =    10.0081

     40  H    Isotropic =    23.9117   Anisotropy =     6.7397

     41  H    Isotropic =    23.9566   Anisotropy =     3.5984

     42  H    Isotropic =    24.2136   Anisotropy =     6.0989

     43  H    Isotropic =    24.2879   Anisotropy =    10.3748

     44  H    Isotropic =    25.0486   Anisotropy =     6.9155

     45  H    Isotropic =    24.5207   Anisotropy =     8.3607

     46  H    Isotropic =    24.2285   Anisotropy =     4.0228

     47  H    Isotropic =    24.2802   Anisotropy =     6.0945

     48  H    Isotropic =    24.6692   Anisotropy =    12.0649

     49  Rh   Isotropic =  -296.3543   Anisotropy =   326.5788

     50  C    Isotropic =    78.9419   Anisotropy =   121.1391

     51  C    Isotropic =    72.8369   Anisotropy =   123.1309

     52  C    Isotropic =    80.0685   Anisotropy =   119.7109

     53  C    Isotropic =    72.0840   Anisotropy =   123.9561

     54  C    Isotropic =   154.0491   Anisotropy =    24.7438

     55  H    Isotropic =    26.7737   Anisotropy =     6.1378

     56  H    Isotropic =    26.8555   Anisotropy =     3.5622

     57  C    Isotropic =   148.0321   Anisotropy =    28.5801

     58  C    Isotropic =   154.0197   Anisotropy =    24.6343

     59  H    Isotropic =    26.9655   Anisotropy =     6.4718

     60  C    Isotropic =   147.8861   Anisotropy =    28.4510

     61  H    Isotropic =    26.8349   Anisotropy =     3.3128

     62  H    Isotropic =    29.7026   Anisotropy =    11.5817

     63  H    Isotropic =    29.6983   Anisotropy =     9.9695

     64  H    Isotropic =    29.2783   Anisotropy =    12.8004

     65  H    Isotropic =    29.3910   Anisotropy =     7.1548

     66  H    Isotropic =    29.7241   Anisotropy =    10.1136

     67  H    Isotropic =    29.8257   Anisotropy =    11.6870

     68  H    Isotropic =    28.9803   Anisotropy =     7.3974

     69  H    Isotropic =    29.1578   Anisotropy =    12.7511

     70  N    Isotropic =   137.0620   Anisotropy =    88.7633

     71  H    Isotropic =    26.6132   Anisotropy =     8.0859

     72  C    Isotropic =    85.8645   Anisotropy =    91.3082

     73  H    Isotropic =    27.2584   Anisotropy =     8.2181

     74  C    Isotropic =    21.7707   Anisotropy =   158.0364

     75  C    Isotropic =   151.4948   Anisotropy =    16.3178

     76  H    Isotropic =    29.3738   Anisotropy =    11.3367

     77  C    Isotropic =   162.3330   Anisotropy =    29.6575

     78  H    Isotropic =    31.6526   Anisotropy =    12.2781

     79  H    Isotropic =    31.3167   Anisotropy =     5.6902

     80  H    Isotropic =    31.4226   Anisotropy =     9.6075

     81  C    Isotropic =   159.5953   Anisotropy =    35.4135

     82  H    Isotropic =    31.1953   Anisotropy =     7.1169

     83  H    Isotropic =    32.2516   Anisotropy =    11.0562

     84  H    Isotropic =    31.3696   Anisotropy =     9.8606

     85  C    Isotropic =    36.5096   Anisotropy =   153.8484

     86  C    Isotropic =    58.0291   Anisotropy =   155.0057

     87  C    Isotropic =    60.1301   Anisotropy =   159.3490

     88  C    Isotropic =    48.2590   Anisotropy =   188.5691

     89  H    Isotropic =    25.0771   Anisotropy =     9.5762

     90  C    Isotropic =    49.9495   Anisotropy =   185.2112

     91  H    Isotropic =    25.2963   Anisotropy =    10.3292

     92  C    Isotropic =    54.6883   Anisotropy =   183.1936

     93  H    Isotropic =    24.4209   Anisotropy =     5.2564

     94  H    Isotropic =    24.5226   Anisotropy =     7.3441

     95  H    Isotropic =    24.6500   Anisotropy =     3.7675

 The electronic state is 1-A.
 Alpha  occ. eigenvalues --  -77.23023 -77.22968 -14.42260 -10.30893 -10.30656
 Alpha  occ. eigenvalues --  -10.29295 -10.29268 -10.29267 -10.29175 -10.29155
 Alpha  occ. eigenvalues --  -10.28579 -10.28523 -10.28276 -10.28248 -10.28125
 Alpha  occ. eigenvalues --  -10.28033 -10.28032 -10.27934 -10.27877 -10.27769
 Alpha  occ. eigenvalues --  -10.27676 -10.27642 -10.27545 -10.27386 -10.27370
 Alpha  occ. eigenvalues --  -10.27344 -10.27282 -10.27227 -10.27212 -10.27122
 Alpha  occ. eigenvalues --  -10.27118 -10.27095 -10.27078 -10.27056 -10.27030
 Alpha  occ. eigenvalues --  -10.26996 -10.26897 -10.26877 -10.26608 -10.25359
 Alpha  occ. eigenvalues --  -10.24857 -10.24709 -10.24674 -10.24597 -10.24202
 Alpha  occ. eigenvalues --  -10.24194 -10.24037  -6.68973  -6.68919  -4.85232
 Alpha  occ. eigenvalues --   -4.85208  -4.85173  -4.85151  -4.84886  -4.84839
 Alpha  occ. eigenvalues --   -3.30889  -2.07773  -2.07112  -2.04374  -1.03460
 Alpha  occ. eigenvalues --   -0.96523  -0.96318  -0.95769  -0.95682  -0.93940
 Alpha  occ. eigenvalues --   -0.93062  -0.90260  -0.88664  -0.88310  -0.87572
 Alpha  occ. eigenvalues --   -0.86882  -0.85471  -0.85115  -0.85004  -0.84959
 Alpha  occ. eigenvalues --   -0.84764  -0.84521  -0.84449  -0.82651  -0.82304
 Alpha  occ. eigenvalues --   -0.79882  -0.78475  -0.77379  -0.76897  -0.75139
 Alpha  occ. eigenvalues --   -0.73628  -0.71232  -0.70993  -0.70847  -0.70539
 Alpha  occ. eigenvalues --   -0.70452  -0.70125  -0.69900  -0.69850  -0.68330
 Alpha  occ. eigenvalues --   -0.68265  -0.66627  -0.65738  -0.65338  -0.63304
 Alpha  occ. eigenvalues --   -0.62254  -0.61992  -0.61663  -0.60966  -0.60356
 Alpha  occ. eigenvalues --   -0.60091  -0.59569  -0.59493  -0.56688  -0.56556
 Alpha  occ. eigenvalues --   -0.56008  -0.55809  -0.55788  -0.55757  -0.55617
 Alpha  occ. eigenvalues --   -0.55120  -0.55066  -0.54957  -0.54507  -0.53998
 Alpha  occ. eigenvalues --   -0.53246  -0.52847  -0.52778  -0.52552  -0.52415
 Alpha  occ. eigenvalues --   -0.52229  -0.52181  -0.52093  -0.51967  -0.51954
 Alpha  occ. eigenvalues --   -0.51116  -0.51050  -0.50824  -0.49977  -0.49372
 Alpha  occ. eigenvalues --   -0.49214  -0.48708  -0.48234  -0.47706  -0.47583
 Alpha  occ. eigenvalues --   -0.47441  -0.46945  -0.46825  -0.46521  -0.46059
 Alpha  occ. eigenvalues --   -0.45737  -0.45601  -0.45568  -0.44874  -0.44849
 Alpha  occ. eigenvalues --   -0.44738  -0.44488  -0.44377  -0.43564  -0.43354
 Alpha  occ. eigenvalues --   -0.43154  -0.43009  -0.42852  -0.42760  -0.42644
 Alpha  occ. eigenvalues --   -0.42353  -0.42092  -0.40973  -0.40755  -0.40120
 Alpha  occ. eigenvalues --   -0.37447  -0.37136  -0.36415  -0.36108  -0.35898
 Alpha  occ. eigenvalues --   -0.35760  -0.35472  -0.35391  -0.35258  -0.34936
 Alpha  occ. eigenvalues --   -0.34131  -0.33831  -0.33046  -0.32997  -0.32857
 Alpha  occ. eigenvalues --   -0.30131  -0.28162
 Alpha virt. eigenvalues --   -0.15930  -0.14202  -0.13811  -0.13146  -0.12470
 Alpha virt. eigenvalues --   -0.11724  -0.11472  -0.10977  -0.10696  -0.10392
 Alpha virt. eigenvalues --   -0.08913  -0.08838  -0.08572  -0.07304  -0.06909

 Mulliken charges:
               1
     1  P    0.363394
     2  P    0.416572
     3  C   -0.610243
     4  C   -0.186813
     5  C   -0.058784
     6  C   -0.102696
     7  C   -0.101022
     8  C   -0.078539
     9  C   -0.096804
    10  C   -0.291690
    11  C   -0.011982
    12  C   -0.129936
    13  C   -0.084003
    14  C   -0.107899
    15  C   -0.056262
    16  C   -0.247164
    17  C   -0.065702
    18  C   -0.110294
    19  C   -0.093840
    20  C   -0.076083
    21  C   -0.081743
    22  C   -0.156942
    23  C   -0.098705
    24  C   -0.141463
    25  C   -0.082195
    26  C   -0.106937
    27  C   -0.088123
    28  H    0.225900
    29  H    0.170945
    30  H    0.133497
    31  H    0.136478
    32  H    0.129509
    33  H    0.150878
    34  H    0.159218
    35  H    0.129983
    36  H    0.137356
    37  H    0.135137
    38  H    0.181218
    39  H    0.172787
    40  H    0.129676
    41  H    0.137000
    42  H    0.133843
    43  H    0.159989
    44  H    0.190653
    45  H    0.127707
    46  H    0.136508
    47  H    0.132515
    48  H    0.165325
    49  Rh  -0.572408
    50  C   -0.052760
    51  C   -0.099104
    52  C   -0.042223
    53  C   -0.087204
    54  C   -0.342860
    55  H    0.198582
    56  H    0.199156
    57  C   -0.215379
    58  C   -0.356463
    59  H    0.186594
    60  C   -0.233265
    61  H    0.212400
    62  H    0.165856
    63  H    0.165274
    64  H    0.171423
    65  H    0.131109
    66  H    0.165529
    67  H    0.165930
    68  H    0.126898
    69  H    0.171422
    70  N   -0.241086
    71  H    0.249042
    72  C   -0.147656
    73  H    0.139691
    74  C    0.129695
    75  C   -0.150515
    76  H    0.181120
    77  C   -0.355627
    78  H    0.120442
    79  H    0.121978
    80  H    0.148425
    81  C   -0.400361
    82  H    0.128945
    83  H    0.129308
    84  H    0.146170
    85  C    0.086749
    86  C   -0.224143
    87  C   -0.109946
    88  C   -0.104797
    89  H    0.127709
    90  C   -0.114398
    91  H    0.123216
    92  C   -0.105922
    93  H    0.125128
    94  H    0.120396
    95  H    0.127704
 Sum of Mulliken charges =   1.00000

 Dipole moment (field-independent basis, Debye):
    X=              2.3956    Y=              0.1196    Z=              0.3300  Tot=              2.4212
 Quadrupole moment (field-independent basis, Debye-Ang):
   XX=           -244.4259   YY=           -259.3289   ZZ=           -261.8434
   XY=              1.4606   XZ=             -4.8826   YZ=             -0.0634

 Summary of Natural Population Analysis:

                                       Natural Population
                Natural  -----------------------------------------------
    Atom  No    Charge         Core      Valence    Rydberg      Total
 -----------------------------------------------------------------------
      P    1    1.10984      9.99639     3.84225    0.05152    13.89016
      P    2    1.11579      9.99638     3.83605    0.05178    13.88421
      C    3   -0.71797      1.99931     4.69221    0.02645     6.71797
      C    4   -0.34112      1.99898     4.31828    0.02387     6.34112
      C    5   -0.19333      1.99909     4.17890    0.01534     6.19333
      C    6   -0.18989      1.99920     4.17603    0.01466     6.18989
      C    7   -0.18159      1.99920     4.16765    0.01474     6.18159
      C    8   -0.19404      1.99919     4.18013    0.01472     6.19404
      C    9   -0.20214      1.99909     4.18792    0.01512     6.20214
      C   10   -0.35932      1.99899     4.33657    0.02377     6.35932
      C   11   -0.18221      1.99910     4.16768    0.01543     6.18221
      C   12   -0.20199      1.99919     4.18820    0.01460     6.20199
      C   13   -0.17487      1.99920     4.16113    0.01453     6.17487
      C   14   -0.19875      1.99919     4.18457    0.01500     6.19875
      C   15   -0.18935      1.99910     4.17376    0.01649     6.18935
      C   16   -0.35048      1.99899     4.32819    0.02330     6.35048
      C   17   -0.19113      1.99910     4.17661    0.01543     6.19113
      C   18   -0.19795      1.99920     4.18409    0.01466     6.19795
      C   19   -0.17645      1.99920     4.16267    0.01458     6.17645
      C   20   -0.19370      1.99919     4.17958    0.01493     6.19370
      C   21   -0.18915      1.99909     4.17328    0.01677     6.18915
      C   22   -0.33851      1.99898     4.31626    0.02327     6.33851
      C   23   -0.19803      1.99910     4.18381    0.01513     6.19803
      C   24   -0.19414      1.99919     4.18039    0.01456     6.19414
      C   25   -0.18406      1.99920     4.17018    0.01468     6.18406
      C   26   -0.19237      1.99920     4.17847    0.01471     6.19237
      C   27   -0.20079      1.99910     4.18660    0.01509     6.20079
      H   28    0.26057      0.00000     0.73680    0.00263     0.73943
      H   29    0.22407      0.00000     0.77418    0.00174     0.77593
      H   30    0.22193      0.00000     0.77685    0.00123     0.77807
      H   31    0.22226      0.00000     0.77656    0.00118     0.77774
      H   32    0.22047      0.00000     0.77828    0.00125     0.77953
      H   33    0.21375      0.00000     0.78418    0.00208     0.78625
      H   34    0.22183      0.00000     0.77612    0.00205     0.77817
      H   35    0.22118      0.00000     0.77757    0.00125     0.77882
      H   36    0.22250      0.00000     0.77634    0.00116     0.77750
      H   37    0.22312      0.00000     0.77560    0.00128     0.77688
      H   38    0.22508      0.00000     0.77220    0.00272     0.77492
      H   39    0.21904      0.00000     0.77897    0.00199     0.78096
      H   40    0.22058      0.00000     0.77817    0.00124     0.77942
      H   41    0.22256      0.00000     0.77627    0.00117     0.77744
      H   42    0.22235      0.00000     0.77637    0.00128     0.77765
      H   43    0.22276      0.00000     0.77493    0.00230     0.77724
      H   44    0.21745      0.00000     0.78051    0.00204     0.78255
      H   45    0.21985      0.00000     0.77889    0.00126     0.78015
      H   46    0.22169      0.00000     0.77713    0.00118     0.77831
      H   47    0.22190      0.00000     0.77688    0.00123     0.77810
      H   48    0.22255      0.00000     0.77572    0.00173     0.77745
     Rh   49   -0.40557     35.98600     9.39142    0.02815    45.40557
      C   50   -0.18297      1.99907     4.16428    0.01962     6.18297
      C   51   -0.15609      1.99908     4.13731    0.01969     6.15609
      C   52   -0.18563      1.99907     4.16698    0.01958     6.18563
      C   53   -0.15582      1.99908     4.13708    0.01965     6.15582
      C   54   -0.42365      1.99936     4.41244    0.01186     6.42365
      H   55    0.22562      0.00000     0.77225    0.00213     0.77438
      H   56    0.23070      0.00000     0.76721    0.00209     0.76930
      C   57   -0.41853      1.99935     4.40660    0.01258     6.41853
      C   58   -0.42350      1.99936     4.41231    0.01184     6.42350
      H   59    0.22452      0.00000     0.77352    0.00196     0.77548
      C   60   -0.41742      1.99935     4.40544    0.01263     6.41742
      H   61    0.23265      0.00000     0.76538    0.00198     0.76735
      H   62    0.22656      0.00000     0.77194    0.00150     0.77344
      H   63    0.21499      0.00000     0.78303    0.00198     0.78501
      H   64    0.23381      0.00000     0.76430    0.00190     0.76619
      H   65    0.21673      0.00000     0.78170    0.00156     0.78327
      H   66    0.21485      0.00000     0.78317    0.00197     0.78515
      H   67    0.22681      0.00000     0.77170    0.00150     0.77319
      H   68    0.21427      0.00000     0.78411    0.00162     0.78573
      H   69    0.23352      0.00000     0.76458    0.00190     0.76648
      N   70   -0.56474      1.99946     5.54690    0.01838     7.56474
      H   71    0.38788      0.00000     0.60918    0.00294     0.61212
      C   72   -0.35194      1.99897     4.33003    0.02293     6.35194
      H   73    0.20101      0.00000     0.79540    0.00360     0.79899
      C   74    0.25530      1.99891     3.72529    0.02050     5.74470
      C   75   -0.26835      1.99934     4.25586    0.01315     6.26835
      H   76    0.22532      0.00000     0.77232    0.00236     0.77468
      C   77   -0.58182      1.99942     4.57405    0.00835     6.58182
      H   78    0.19527      0.00000     0.80263    0.00210     0.80473
      H   79    0.20440      0.00000     0.79431    0.00129     0.79560
      H   80    0.21434      0.00000     0.78443    0.00122     0.78566
      C   81   -0.57331      1.99942     4.56617    0.00772     6.57331
      H   82    0.21207      0.00000     0.78660    0.00134     0.78793
      H   83    0.19148      0.00000     0.80654    0.00198     0.80852
      H   84    0.21181      0.00000     0.78689    0.00129     0.78819
      C   85    0.12859      1.99891     3.85522    0.01728     5.87141
      C   86   -0.22647      1.99910     4.21245    0.01491     6.22647
      C   87   -0.24599      1.99908     4.23270    0.01422     6.24599
      C   88   -0.18412      1.99921     4.17002    0.01489     6.18412
      H   89    0.21136      0.00000     0.78700    0.00164     0.78864
      C   90   -0.18738      1.99921     4.17299    0.01517     6.18738
      H   91    0.20733      0.00000     0.79066    0.00201     0.79267
      C   92   -0.21633      1.99920     4.20187    0.01525     6.21633
      H   93    0.21671      0.00000     0.78211    0.00118     0.78329
      H   94    0.21438      0.00000     0.78440    0.00122     0.78562
      H   95    0.21755      0.00000     0.78126    0.00119     0.78245
 =======================================================================
   * Total *    1.00000    145.94110   245.11399    0.94491   392.00000

 Normal termination of Gaussian 16 at Wed Jan 22 19:50:52 2025.
