 Gaussian 16, Revision B.01,
 Gaussian 16:  ES64L-G16RevB.01 20-Dec-2017

 ------------------------------------------
 # nmr=giao b3lyp/genecp pop=nbo scfcyc=200
 ------------------------------------------

 ---------
 MS-55_SPE
 ---------
 Symbolic Z-matrix:
 Charge =  1 Multiplicity = 1

                         Standard orientation:
 ---------------------------------------------------------------------
 Center     Atomic      Atomic             Coordinates (Angstroms)
 Number     Number       Type             X           Y           Z
 ---------------------------------------------------------------------
      1          6           0       -0.929710    0.431620   -0.085090
      2          1           0       -1.212880    0.269589   -1.126650
      3          6           0        0.788958    2.328811   -1.731960
      4          6           0        1.920658    3.122792   -1.961270
      5          1           0        2.714748    3.169732   -1.225610
      6          6           0        2.027597    3.878722   -3.121270
      7          1           0        2.904697    4.492872   -3.282620
      8          6           0        1.009757    3.848491   -4.070910
      9          1           0        1.093147    4.437641   -4.975390
     10          6           0       -0.116092    3.065160   -3.848560
     11          1           0       -0.915442    3.045780   -4.578940
     12          6           0       -0.229512    2.305100   -2.686630
     13          1           0       -1.125891    1.719439   -2.527210
     14          6           0        0.988808    2.495651    1.162210
     15          6           0        0.406447    3.766481    1.113460
     16          1           0       -0.178533    4.066680    0.253980
     17          6           0        0.581507    4.654371    2.167350
     18          1           0        0.129186    5.637060    2.121450
     19          6           0        1.333727    4.283411    3.278800
     20          1           0        1.469996    4.979451    4.097030
     21          6           0        1.915788    3.021432    3.334100
     22          1           0        2.507208    2.732492    4.193930
     23          6           0        1.747839    2.131811    2.278050
     24          1           0        2.207379    1.151592    2.316260
     25          6           0       -0.981728   -2.560811   -0.606710
     26          6           0       -0.926308   -2.421180   -1.999890
     27          1           0       -0.478769   -1.539960   -2.444600
     28          6           0       -1.433627   -3.412441   -2.828410
     29          1           0       -1.393738   -3.286871   -3.903240
     30          6           0       -1.986807   -4.566531   -2.279750
     31          1           0       -2.383086   -5.339142   -2.926180
     32          6           0       -2.022357   -4.724371   -0.900390
     33          1           0       -2.444406   -5.622082   -0.466490
     34          6           0       -1.520327   -3.730211   -0.064620
     35          1           0       -1.553557   -3.874481    1.006080
     36          6           0       -0.644579   -1.620100    2.172410
     37          6           0        0.368671   -1.724730    3.129050
     38          1           0        1.400831   -1.590139    2.831400
     39          6           0        0.058131   -1.997090    4.457720
     40          1           0        0.850932   -2.079329    5.190610
     41          6           0       -1.267428   -2.167601    4.840280
     42          1           0       -1.510248   -2.383081    5.873290
     43          6           0       -2.283758   -2.060921    3.894160
     44          1           0       -3.317248   -2.188952    4.190450
     45          6           0       -1.977959   -1.785771    2.567540
     46          1           0       -2.779189   -1.701152    1.845370
     47          6           0       -2.081061    1.101659    0.608470
     48          6           0       -3.255091    1.445668   -0.105980
     49          6           0       -4.246962    2.187837    0.542140
     50          1           0       -5.137172    2.472076   -0.003030
     51          6           0       -4.123742    2.558117    1.874670
     52          1           0       -4.912092    3.128217    2.350490
     53          6           0       -2.995982    2.181118    2.591760
     54          1           0       -2.890332    2.452308    3.634290
     55          6           0       -1.990381    1.466669    1.957190
     56          1           0       -1.105801    1.203699    2.519330
     57         15           0        0.773449    1.288081   -0.209040
     58         15           0       -0.186729   -1.257240    0.432180
     59         45           0        2.022951   -0.694968   -0.129650
     60          6           0        3.820120   -0.129497   -1.432220
     61          6           0        4.114720    0.167053   -0.119680
     62          6           0        3.218712   -2.568697    0.433490
     63          6           0        2.675072   -2.751608   -0.819130
     64          6           0        4.323001   -1.339717   -2.195850
     65          1           0        3.422700    0.673483   -2.042690
     66          1           0        3.971129    1.193373    0.202960
     67          6           0        4.914221   -0.680406    0.839760
     68          6           0        4.661772   -2.200566    0.726830
     69          1           0        2.663432   -2.983408    1.267880
     70          6           0        3.362982   -2.546777   -2.145640
     71          1           0        1.749492   -3.313159   -0.879960
     72          1           0        4.464011   -1.054217   -3.239700
     73          1           0        5.308631   -1.622276   -1.826640
     74          1           0        5.984240   -0.474465    0.711090
     75          1           0        4.672150   -0.352426    1.853360
     76          1           0        5.310652   -2.635826   -0.032930
     77          1           0        4.952732   -2.667616    1.669290
     78          1           0        2.586892   -2.418828   -2.903240
     79          1           0        3.902673   -3.460967   -2.423610
     80          7           0       -3.402131    1.052028   -1.475150
     81          6           0       -4.004451    2.043547   -2.366880
     82          1           0       -3.883571    1.702197   -3.397030
     83          1           0       -5.074552    2.221347   -2.203440
     84          1           0       -3.485452    2.995858   -2.258080
     85          6           0       -3.906680   -0.314903   -1.681180
     86          1           0       -3.721840   -0.593762   -2.721360
     87          1           0       -3.328809   -1.000802   -1.062780
     88          6           0       -5.386590   -0.547654   -1.370740
     89          1           0       -6.021460    0.029526   -2.052140
     90          1           0       -5.610820   -0.234844   -0.344360
     91          8           0       -5.604999   -1.947454   -1.538170
     92          1           0       -6.544788   -2.133845   -1.442310
 ---------------------------------------------------------------------

 SCF Done:  E(RB3LYP) =  -2551.30250519     A.U. after   16 cycles

      1  C    Isotropic =   113.9914   Anisotropy =    58.6862

      2  H    Isotropic =    24.4281   Anisotropy =     9.9123

      3  C    Isotropic =    44.3830   Anisotropy =   169.8566

      4  C    Isotropic =    47.1654   Anisotropy =   186.1234

      5  H    Isotropic =    24.9653   Anisotropy =    11.5623

      6  C    Isotropic =    48.3391   Anisotropy =   190.1589

      7  H    Isotropic =    24.2865   Anisotropy =     6.6840

      8  C    Isotropic =    46.9503   Anisotropy =   193.9766

      9  H    Isotropic =    24.0974   Anisotropy =     3.7560

     10  C    Isotropic =    49.1195   Anisotropy =   187.2443

     11  H    Isotropic =    24.0231   Anisotropy =     7.5974

     12  C    Isotropic =    48.9099   Anisotropy =   189.1982

     13  H    Isotropic =    23.0987   Anisotropy =     8.9705

     14  C    Isotropic =    44.9351   Anisotropy =   171.0368

     15  C    Isotropic =    42.5657   Anisotropy =   197.0894

     16  H    Isotropic =    25.6369   Anisotropy =    10.5170

     17  C    Isotropic =    49.2990   Anisotropy =   190.0921

     18  H    Isotropic =    24.7402   Anisotropy =     6.4632

     19  C    Isotropic =    45.4905   Anisotropy =   197.9619

     20  H    Isotropic =    24.1789   Anisotropy =     3.4275

     21  C    Isotropic =    50.3602   Anisotropy =   185.8112

     22  H    Isotropic =    24.1392   Anisotropy =     7.1549

     23  C    Isotropic =    41.0980   Anisotropy =   179.2704

     24  H    Isotropic =    23.1119   Anisotropy =     9.8325

     25  C    Isotropic =    42.6061   Anisotropy =   171.4085

     26  C    Isotropic =    46.6440   Anisotropy =   189.7166

     27  H    Isotropic =    23.4336   Anisotropy =     9.3160

     28  C    Isotropic =    48.7149   Anisotropy =   190.3790

     29  H    Isotropic =    23.9183   Anisotropy =     6.7538

     30  C    Isotropic =    46.1558   Anisotropy =   196.4181

     31  H    Isotropic =    24.0969   Anisotropy =     3.3224

     32  C    Isotropic =    48.9589   Anisotropy =   189.5904

     33  H    Isotropic =    24.3704   Anisotropy =     6.0870

     34  C    Isotropic =    47.7187   Anisotropy =   189.7956

     35  H    Isotropic =    24.8329   Anisotropy =    12.7971

     36  C    Isotropic =    52.8083   Anisotropy =   166.6626

     37  C    Isotropic =    41.0523   Anisotropy =   178.3822

     38  H    Isotropic =    23.2749   Anisotropy =    10.7433

     39  C    Isotropic =    49.1068   Anisotropy =   188.0191

     40  H    Isotropic =    23.9465   Anisotropy =     7.0324

     41  C    Isotropic =    44.7156   Anisotropy =   198.9546

     42  H    Isotropic =    24.0139   Anisotropy =     3.4764

     43  C    Isotropic =    50.1479   Anisotropy =   188.5716

     44  H    Isotropic =    24.4549   Anisotropy =     6.7276

     45  C    Isotropic =    41.0088   Anisotropy =   197.4348

     46  H    Isotropic =    24.9600   Anisotropy =     9.3715

     47  C    Isotropic =    47.6794   Anisotropy =   160.0214

     48  C    Isotropic =    27.0359   Anisotropy =   157.2764

     49  C    Isotropic =    54.5057   Anisotropy =   182.1062

     50  H    Isotropic =    24.6952   Anisotropy =     9.5241

     51  C    Isotropic =    50.1297   Anisotropy =   185.8591

     52  H    Isotropic =    24.7281   Anisotropy =     3.4030

     53  C    Isotropic =    55.9279   Anisotropy =   181.0372

     54  H    Isotropic =    25.6479   Anisotropy =     7.0713

     55  C    Isotropic =    42.8849   Anisotropy =   193.4388

     56  H    Isotropic =    26.8194   Anisotropy =     4.2060

     57  P    Isotropic =   275.7507   Anisotropy =    47.3879

     58  P    Isotropic =   281.5683   Anisotropy =    73.5168

     59  Rh   Isotropic =  -291.5768   Anisotropy =   326.5901

     60  C    Isotropic =    72.7642   Anisotropy =   131.2117

     61  C    Isotropic =    78.5783   Anisotropy =   115.0477

     62  C    Isotropic =    79.6306   Anisotropy =   119.2415

     63  C    Isotropic =    70.4654   Anisotropy =   126.9464

     64  C    Isotropic =   154.0265   Anisotropy =    24.8877

     65  H    Isotropic =    27.0305   Anisotropy =     6.2030

     66  H    Isotropic =    26.1981   Anisotropy =     4.2296

     67  C    Isotropic =   147.8794   Anisotropy =    28.6430

     68  C    Isotropic =   153.9708   Anisotropy =    25.3606

     69  H    Isotropic =    26.8011   Anisotropy =     7.2345

     70  C    Isotropic =   148.3680   Anisotropy =    27.5854

     71  H    Isotropic =    27.2411   Anisotropy =     4.3984

     72  H    Isotropic =    30.0068   Anisotropy =    11.0641

     73  H    Isotropic =    29.7859   Anisotropy =     9.9255

     74  H    Isotropic =    28.9749   Anisotropy =    12.9751

     75  H    Isotropic =    28.8364   Anisotropy =     8.2355

     76  H    Isotropic =    29.6905   Anisotropy =     9.8744

     77  H    Isotropic =    29.6990   Anisotropy =    11.9526

     78  H    Isotropic =    29.3754   Anisotropy =     7.0983

     79  H    Isotropic =    29.4360   Anisotropy =    12.6309

     80  N    Isotropic =   200.0465   Anisotropy =    45.6732

     81  C    Isotropic =   143.1737   Anisotropy =    57.8760

     82  H    Isotropic =    28.9611   Anisotropy =     9.4048

     83  H    Isotropic =    28.5352   Anisotropy =    10.8331

     84  H    Isotropic =    29.3278   Anisotropy =     8.4907

     85  C    Isotropic =   120.9454   Anisotropy =    55.7887

     86  H    Isotropic =    28.9503   Anisotropy =     3.7694

     87  H    Isotropic =    29.9021   Anisotropy =    10.2137

     88  C    Isotropic =   126.2754   Anisotropy =    66.6674

     89  H    Isotropic =    27.9888   Anisotropy =     5.1685

     90  H    Isotropic =    28.5617   Anisotropy =     6.5562

     91  O    Isotropic =   309.4965   Anisotropy =   100.8533

     92  H    Isotropic =    32.0120   Anisotropy =    21.9572

 The electronic state is 1-A.
 Alpha  occ. eigenvalues --  -77.23247 -77.23095 -19.20245 -14.40949 -10.30441
 Alpha  occ. eigenvalues --  -10.29952 -10.29458 -10.29123 -10.29041 -10.28972
 Alpha  occ. eigenvalues --  -10.28820 -10.28450 -10.28362 -10.28341 -10.28190
 Alpha  occ. eigenvalues --  -10.28042 -10.28024 -10.27983 -10.27924 -10.27772
 Alpha  occ. eigenvalues --  -10.27746 -10.27725 -10.27679 -10.27568 -10.27510
 Alpha  occ. eigenvalues --  -10.27407 -10.27387 -10.27244 -10.27181 -10.27152
 Alpha  occ. eigenvalues --  -10.27129 -10.27058 -10.27042 -10.27012 -10.26929
 Alpha  occ. eigenvalues --  -10.26924 -10.26914 -10.26911 -10.26838 -10.26779
 Alpha  occ. eigenvalues --  -10.26736 -10.26714 -10.26225 -10.26064 -10.25891
 Alpha  occ. eigenvalues --  -10.25672  -6.69166  -6.69033  -4.85438  -4.85392
 Alpha  occ. eigenvalues --   -4.85311  -4.85255  -4.85082  -4.84946  -3.30824
 Alpha  occ. eigenvalues --   -2.07716  -2.07055  -2.04301  -1.09997  -1.02553
 Alpha  occ. eigenvalues --   -0.96397  -0.96151  -0.95544  -0.95521  -0.94297
 Alpha  occ. eigenvalues --   -0.93872  -0.89464  -0.88595  -0.87471  -0.86758
 Alpha  occ. eigenvalues --   -0.85757  -0.84979  -0.84734  -0.84700  -0.84667
 Alpha  occ. eigenvalues --   -0.84363  -0.84304  -0.83957  -0.82053  -0.80898
 Alpha  occ. eigenvalues --   -0.79763  -0.77282  -0.76124  -0.75054  -0.73554
 Alpha  occ. eigenvalues --   -0.70982  -0.70710  -0.70599  -0.70466  -0.70303
 Alpha  occ. eigenvalues --   -0.70020  -0.69714  -0.69675  -0.69047  -0.66507
 Alpha  occ. eigenvalues --   -0.66446  -0.65281  -0.65007  -0.62084  -0.62012
 Alpha  occ. eigenvalues --   -0.61640  -0.61514  -0.60554  -0.59940  -0.59408
 Alpha  occ. eigenvalues --   -0.59238  -0.57504  -0.56578  -0.56516  -0.55957
 Alpha  occ. eigenvalues --   -0.55701  -0.55643  -0.55582  -0.55423  -0.55041
 Alpha  occ. eigenvalues --   -0.54959  -0.54836  -0.54335  -0.54066  -0.53325
 Alpha  occ. eigenvalues --   -0.53136  -0.53033  -0.52581  -0.52416  -0.52184
 Alpha  occ. eigenvalues --   -0.52058  -0.51997  -0.51980  -0.51825  -0.51554
 Alpha  occ. eigenvalues --   -0.50890  -0.50716  -0.49831  -0.49132  -0.48163
 Alpha  occ. eigenvalues --   -0.47937  -0.47694  -0.47366  -0.47191  -0.47043
 Alpha  occ. eigenvalues --   -0.46902  -0.46684  -0.45845  -0.45548  -0.45496
 Alpha  occ. eigenvalues --   -0.45461  -0.45148  -0.44903  -0.44764  -0.44499
 Alpha  occ. eigenvalues --   -0.44411  -0.44366  -0.43533  -0.43115  -0.43066
 Alpha  occ. eigenvalues --   -0.42876  -0.42691  -0.42481  -0.42157  -0.41770
 Alpha  occ. eigenvalues --   -0.40789  -0.37505  -0.36951  -0.36232  -0.36129
 Alpha  occ. eigenvalues --   -0.35926  -0.35721  -0.35626  -0.35349  -0.35234
 Alpha  occ. eigenvalues --   -0.35044  -0.34770  -0.34296  -0.34053  -0.33778
 Alpha  occ. eigenvalues --   -0.33316  -0.33112  -0.30321  -0.30033
 Alpha virt. eigenvalues --   -0.15828  -0.14127  -0.13440  -0.13212  -0.12238
 Alpha virt. eigenvalues --   -0.11720  -0.11381  -0.11202  -0.10586  -0.10347
 Alpha virt. eigenvalues --   -0.09326  -0.09181  -0.08765  -0.07298  -0.06099

 Mulliken charges:
               1
     1  C   -0.762613
     2  H    0.253357
     3  C   -0.183943
     4  C   -0.092165
     5  H    0.157799
     6  C   -0.093371
     7  H    0.131391
     8  C   -0.082067
     9  H    0.135415
    10  C   -0.149485
    11  H    0.126690
    12  C   -0.044344
    13  H    0.176139
    14  C   -0.367351
    15  C    0.049134
    16  H    0.146744
    17  C   -0.113401
    18  H    0.131810
    19  C   -0.081258
    20  H    0.136870
    21  C   -0.114749
    22  H    0.127637
    23  C    0.000354
    24  H    0.154173
    25  C   -0.245414
    26  C   -0.069439
    27  H    0.147358
    28  C   -0.075729
    29  H    0.128181
    30  C   -0.094770
    31  H    0.133382
    32  C   -0.094752
    33  H    0.131432
    34  C   -0.048007
    35  H    0.165151
    36  C   -0.273021
    37  C   -0.011911
    38  H    0.157571
    39  C   -0.135740
    40  H    0.128192
    41  C   -0.077018
    42  H    0.137528
    43  C   -0.110842
    44  H    0.131297
    45  C   -0.003507
    46  H    0.168813
    47  C    0.048552
    48  C    0.017525
    49  C   -0.144177
    50  H    0.116646
    51  C   -0.078867
    52  H    0.121252
    53  C   -0.112382
    54  H    0.118755
    55  C   -0.021796
    56  H    0.163229
    57  P    0.438069
    58  P    0.397346
    59  Rh  -0.675516
    60  C   -0.023340
    61  C   -0.103510
    62  C   -0.025076
    63  C   -0.099901
    64  C   -0.351069
    65  H    0.211612
    66  H    0.193397
    67  C   -0.230209
    68  C   -0.341321
    69  H    0.183310
    70  C   -0.236238
    71  H    0.223693
    72  H    0.168385
    73  H    0.164988
    74  H    0.171380
    75  H    0.127554
    76  H    0.167283
    77  H    0.166244
    78  H    0.135288
    79  H    0.169437
    80  N   -0.198413
    81  C   -0.312315
    82  H    0.139898
    83  H    0.134556
    84  H    0.156593
    85  C   -0.042122
    86  H    0.135092
    87  H    0.144208
    88  C   -0.200167
    89  H    0.126013
    90  H    0.126506
    91  O   -0.378368
    92  H    0.276453
 Sum of Mulliken charges =   1.00000

 Dipole moment (field-independent basis, Debye):
    X=              0.0166    Y=              0.3843    Z=              0.3584  Tot=              0.5258
 Quadrupole moment (field-independent basis, Debye-Ang):
   XX=           -232.0490   YY=           -258.0956   ZZ=           -251.1805
   XY=             -0.8811   XZ=              2.7855   YZ=             -2.8708

 Summary of Natural Population Analysis:

                                       Natural Population
                Natural  -----------------------------------------------
    Atom  No    Charge         Core      Valence    Rydberg      Total
 -----------------------------------------------------------------------
      C    1   -0.75256      1.99927     4.72760    0.02569     6.75256
      H    2    0.28419      0.00000     0.71257    0.00324     0.71581
      C    3   -0.33760      1.99899     4.31502    0.02359     6.33760
      C    4   -0.19855      1.99909     4.18416    0.01529     6.19855
      H    5    0.21619      0.00000     0.78203    0.00179     0.78381
      C    6   -0.19135      1.99919     4.17756    0.01460     6.19135
      H    7    0.22189      0.00000     0.77688    0.00123     0.77811
      C    8   -0.18380      1.99920     4.16991    0.01468     6.18380
      H    9    0.22177      0.00000     0.77704    0.00119     0.77823
      C   10   -0.19176      1.99920     4.17797    0.01459     6.19176
      H   11    0.21827      0.00000     0.78043    0.00130     0.78173
      C   12   -0.20587      1.99908     4.19111    0.01568     6.20587
      H   13    0.22633      0.00000     0.77142    0.00225     0.77367
      C   14   -0.35099      1.99898     4.32773    0.02427     6.35099
      C   15   -0.17598      1.99909     4.16048    0.01641     6.17598
      H   16    0.22249      0.00000     0.77520    0.00231     0.77751
      C   17   -0.19253      1.99919     4.17848    0.01485     6.19253
      H   18    0.22230      0.00000     0.77644    0.00127     0.77770
      C   19   -0.17528      1.99921     4.16153    0.01455     6.17528
      H   20    0.22150      0.00000     0.77732    0.00118     0.77850
      C   21   -0.20116      1.99919     4.18733    0.01464     6.20116
      H   22    0.21970      0.00000     0.77904    0.00127     0.78030
      C   23   -0.18767      1.99909     4.17325    0.01533     6.18767
      H   24    0.21961      0.00000     0.77804    0.00235     0.78039
      C   25   -0.34622      1.99898     4.32377    0.02348     6.34622
      C   26   -0.19904      1.99909     4.18482    0.01513     6.19904
      H   27    0.21335      0.00000     0.78469    0.00196     0.78665
      C   28   -0.19255      1.99919     4.17861    0.01475     6.19255
      H   29    0.21954      0.00000     0.77918    0.00127     0.78046
      C   30   -0.17595      1.99920     4.16199    0.01476     6.17595
      H   31    0.22187      0.00000     0.77694    0.00118     0.77813
      C   32   -0.18601      1.99920     4.17213    0.01468     6.18601
      H   33    0.22173      0.00000     0.77704    0.00123     0.77827
      C   34   -0.19485      1.99909     4.18059    0.01517     6.19485
      H   35    0.22399      0.00000     0.77426    0.00174     0.77601
      C   36   -0.35875      1.99899     4.33508    0.02468     6.35875
      C   37   -0.18145      1.99910     4.16656    0.01578     6.18145
      H   38    0.21943      0.00000     0.77855    0.00202     0.78057
      C   39   -0.20081      1.99919     4.18689    0.01473     6.20081
      H   40    0.22052      0.00000     0.77825    0.00123     0.77948
      C   41   -0.17301      1.99920     4.15931    0.01449     6.17301
      H   42    0.22222      0.00000     0.77665    0.00113     0.77778
      C   43   -0.19565      1.99919     4.18143    0.01503     6.19565
      H   44    0.22293      0.00000     0.77580    0.00127     0.77707
      C   45   -0.18154      1.99910     4.16512    0.01733     6.18154
      H   46    0.22285      0.00000     0.77494    0.00221     0.77715
      C   47   -0.09426      1.99895     4.06960    0.02571     6.09426
      C   48    0.16210      1.99886     3.81910    0.01994     5.83790
      C   49   -0.23378      1.99908     4.22057    0.01414     6.23378
      H   50    0.21340      0.00000     0.78410    0.00251     0.78660
      C   51   -0.18105      1.99920     4.16667    0.01518     6.18105
      H   52    0.21812      0.00000     0.78074    0.00114     0.78188
      C   53   -0.20770      1.99919     4.19319    0.01532     6.20770
      H   54    0.21828      0.00000     0.78038    0.00134     0.78172
      C   55   -0.17675      1.99911     4.16188    0.01576     6.17675
      H   56    0.21585      0.00000     0.78113    0.00302     0.78415
      P   57    1.13449      9.99635     3.81792    0.05124    13.86551
      P   58    1.13066      9.99634     3.82031    0.05269    13.86934
     Rh   59   -0.40496     35.98602     9.39181    0.02713    45.40496
      C   60   -0.16535      1.99907     4.14685    0.01943     6.16535
      C   61   -0.17451      1.99908     4.15552    0.01991     6.17451
      C   62   -0.18640      1.99908     4.16793    0.01939     6.18640
      C   63   -0.15452      1.99910     4.13531    0.02011     6.15452
      C   64   -0.42340      1.99936     4.41223    0.01181     6.42340
      H   65    0.23111      0.00000     0.76662    0.00227     0.76889
      H   66    0.22587      0.00000     0.77215    0.00198     0.77413
      C   67   -0.41735      1.99935     4.40532    0.01268     6.41735
      C   68   -0.42254      1.99936     4.41141    0.01177     6.42254
      H   69    0.22516      0.00000     0.77286    0.00198     0.77484
      C   70   -0.41820      1.99935     4.40589    0.01296     6.41820
      H   71    0.23324      0.00000     0.76467    0.00209     0.76676
      H   72    0.22836      0.00000     0.77016    0.00148     0.77164
      H   73    0.21378      0.00000     0.78426    0.00196     0.78622
      H   74    0.23302      0.00000     0.76506    0.00191     0.76698
      H   75    0.21277      0.00000     0.78565    0.00157     0.78723
      H   76    0.21506      0.00000     0.78299    0.00195     0.78494
      H   77    0.22693      0.00000     0.77159    0.00149     0.77307
      H   78    0.21771      0.00000     0.78062    0.00167     0.78229
      H   79    0.23298      0.00000     0.76514    0.00188     0.76702
      N   80   -0.45651      1.99953     5.43530    0.02168     7.45651
      C   81   -0.40370      1.99936     4.39353    0.01081     6.40370
      H   82    0.20174      0.00000     0.79667    0.00159     0.79826
      H   83    0.17306      0.00000     0.82414    0.00280     0.82694
      H   84    0.20688      0.00000     0.79158    0.00154     0.79312
      C   85   -0.21808      1.99931     4.20198    0.01680     6.21808
      H   86    0.19785      0.00000     0.79946    0.00269     0.80215
      H   87    0.20303      0.00000     0.79392    0.00305     0.79697
      C   88   -0.08533      1.99926     4.06996    0.01611     6.08533
      H   89    0.15738      0.00000     0.84075    0.00186     0.84262
      H   90    0.15843      0.00000     0.83941    0.00216     0.84157
      O   91   -0.69787      1.99982     6.68751    0.01054     8.69787
      H   92    0.46326      0.00000     0.53259    0.00415     0.53674
 =======================================================================
   * Total *    1.00000    143.94241   241.10760    0.94999   386.00000

 Normal termination of Gaussian 16 at Wed Jan 22 19:34:41 2025.
