 Gaussian 16, Revision B.01,
 Gaussian 16:  ES64L-G16RevB.01 20-Dec-2017

 ------------------------------------------
 # nmr=giao b3lyp/genecp pop=nbo scfcyc=200
 ------------------------------------------

 ---------
 MS-53_SPE
 ---------
 Symbolic Z-matrix:
 Charge =  1 Multiplicity = 1

                         Standard orientation:
 ---------------------------------------------------------------------
 Center     Atomic      Atomic             Coordinates (Angstroms)
 Number     Number       Type             X           Y           Z
 ---------------------------------------------------------------------
      1         15           0        1.261799    1.279581    0.396450
      2         15           0       -0.071710   -1.157300    0.101090
      3          8           0       -3.110900    0.361999    1.688440
      4          7           0       -4.026771    1.160139   -0.250640
      5          1           0       -3.778051    1.564549   -1.140590
      6          6           0       -0.475981    0.597050    0.731830
      7          1           0       -0.682361    0.555800    1.800070
      8          6           0       -1.626661    1.348530    0.067730
      9          1           0       -1.544521    2.411070    0.316360
     10          1           0       -1.583941    1.285570   -1.020880
     11          6           0       -2.993451    0.884379    0.589650
     12          6           0       -5.419451    0.967669   -0.064370
     13          6           0       -6.250731    1.292299   -1.141380
     14          1           0       -5.819131    1.665869   -2.064180
     15          6           0       -7.625531    1.142668   -1.036080
     16          1           0       -8.256341    1.400618   -1.877400
     17          6           0       -8.188931    0.665828    0.143880
     18          1           0       -9.261571    0.549268    0.228490
     19          6           0       -7.360090    0.344658    1.212180
     20          1           0       -7.788280   -0.023802    2.136110
     21          6           0       -5.978931    0.490389    1.122850
     22          1           0       -5.342790    0.240359    1.955890
     23          6           0        2.046289    1.676561    2.016700
     24          6           0        1.656459    1.051121    3.203710
     25          1           0        0.828290    0.355670    3.223280
     26          6           0        2.338189    1.308381    4.389300
     27          1           0        2.019039    0.823811    5.303360
     28          6           0        3.420549    2.180201    4.401900
     29          1           0        3.947669    2.379471    5.326250
     30          6           0        3.824579    2.795591    3.220660
     31          1           0        4.666899    3.476021    3.221890
     32          6           0        3.146819    2.543411    2.034380
     33          1           0        3.468779    3.039521    1.127010
     34          6           0        1.057679    2.899610   -0.459400
     35          6           0        0.771739    4.071260    0.251300
     36          1           0        0.722389    4.057080    1.332600
     37          6           0        0.560658    5.265890   -0.427210
     38          1           0        0.344628    6.168190    0.131030
     39          6           0        0.628348    5.304070   -1.817450
     40          1           0        0.467688    6.237570   -2.341910
     41          6           0        0.906679    4.142970   -2.530270
     42          1           0        0.964038    4.169580   -3.611310
     43          6           0        1.121169    2.945430   -1.854770
     44          1           0        1.341339    2.042641   -2.410940
     45          6           0       -0.109880   -2.215050    1.609560
     46          6           0       -1.137930   -2.098850    2.554630
     47          1           0       -1.930100   -1.372230    2.419820
     48          6           0       -1.141390   -2.916250    3.679870
     49          1           0       -1.940750   -2.821160    4.404220
     50          6           0       -0.127339   -3.849350    3.876480
     51          1           0       -0.135759   -4.483100    4.754460
     52          6           0        0.900461   -3.960810    2.946830
     53          1           0        1.697351   -4.677789    3.099530
     54          6           0        0.911900   -3.145060    1.820410
     55          1           0        1.726120   -3.223719    1.113960
     56          6           0       -1.433080   -1.725450   -1.006130
     57          6           0       -1.460010   -1.238100   -2.319270
     58          1           0       -0.688240   -0.557090   -2.659120
     59          6           0       -2.461870   -1.633360   -3.197600
     60          1           0       -2.472330   -1.251150   -4.210920
     61          6           0       -3.437990   -2.533501   -2.779820
     62          1           0       -4.214450   -2.849011   -3.465180
     63          6           0       -3.408280   -3.033461   -1.482800
     64          1           0       -4.162199   -3.737931   -1.155090
     65          6           0       -2.412490   -2.634000   -0.597230
     66          1           0       -2.403990   -3.033100    0.407350
     67         45           0        2.053010   -0.598769   -0.766060
     68          6           0        2.858280   -2.631479   -1.497890
     69          6           0        2.187270   -2.011089   -2.528020
     70          6           0        3.831330    0.325881   -1.886880
     71          6           0        4.266640   -0.194789   -0.687160
     72          6           0        4.363250   -2.685799   -1.318840
     73          1           0        2.293680   -3.361419   -0.929630
     74          1           0        1.159840   -2.315340   -2.697260
     75          6           0        2.797880   -1.214899   -3.654710
     76          6           0        3.992940   -0.326799   -3.247240
     77          1           0        3.607799    1.386261   -1.903480
     78          6           0        4.926180   -1.532199   -0.461120
     79          1           0        4.365769    0.494721    0.145290
     80          1           0        4.621031   -3.629999   -0.836230
     81          1           0        4.849250   -2.707969   -2.293980
     82          1           0        3.099980   -1.896449   -4.459970
     83          1           0        2.013280   -0.585309   -4.080920
     84          1           0        4.918470   -0.901389   -3.271620
     85          1           0        4.110549    0.458041   -3.996450
     86          1           0        4.810390   -1.782179    0.595760
     87          1           0        6.006720   -1.439438   -0.628310
 ---------------------------------------------------------------------

 SCF Done:  E(RB3LYP) =  -2510.82035099     A.U. after   18 cycles

      1  P    Isotropic =   300.7169   Anisotropy =    87.6497

      2  P    Isotropic =   305.1198   Anisotropy =    75.1436

      3  O    Isotropic =   -81.5326   Anisotropy =   642.1160

      4  N    Isotropic =   101.0250   Anisotropy =   129.3034

      5  H    Isotropic =    26.5843   Anisotropy =    10.4066

      6  C    Isotropic =   116.7077   Anisotropy =    55.6478

      7  H    Isotropic =    26.3289   Anisotropy =     6.1199

      8  C    Isotropic =   144.6101   Anisotropy =    47.8864

      9  H    Isotropic =    30.0260   Anisotropy =     7.7057

     10  H    Isotropic =    29.9266   Anisotropy =     3.3676

     11  C    Isotropic =    14.1153   Anisotropy =   109.5119

     12  C    Isotropic =    40.3090   Anisotropy =   150.8513

     13  C    Isotropic =    64.2863   Anisotropy =   141.3642

     14  H    Isotropic =    25.7448   Anisotropy =     9.1063

     15  C    Isotropic =    50.3874   Anisotropy =   186.4782

     16  H    Isotropic =    24.5970   Anisotropy =     5.8138

     17  C    Isotropic =    53.4668   Anisotropy =   184.2291

     18  H    Isotropic =    24.6327   Anisotropy =     3.6740

     19  C    Isotropic =    48.9395   Anisotropy =   189.5794

     20  H    Isotropic =    24.4266   Anisotropy =     6.2343

     21  C    Isotropic =    61.9666   Anisotropy =   172.6708

     22  H    Isotropic =    23.2652   Anisotropy =    12.5553

     23  C    Isotropic =    45.7279   Anisotropy =   168.4133

     24  C    Isotropic =    48.9713   Anisotropy =   190.6549

     25  H    Isotropic =    24.6213   Anisotropy =     9.0903

     26  C    Isotropic =    48.8028   Anisotropy =   189.8272

     27  H    Isotropic =    24.3701   Anisotropy =     7.8123

     28  C    Isotropic =    46.7765   Anisotropy =   194.8688

     29  H    Isotropic =    24.1714   Anisotropy =     3.9097

     30  C    Isotropic =    48.6621   Anisotropy =   190.0209

     31  H    Isotropic =    24.2847   Anisotropy =     6.3184

     32  C    Isotropic =    48.1331   Anisotropy =   186.4744

     33  H    Isotropic =    24.8210   Anisotropy =    11.7432

     34  C    Isotropic =    47.6498   Anisotropy =   172.5979

     35  C    Isotropic =    44.0844   Anisotropy =   193.6212

     36  H    Isotropic =    24.5774   Anisotropy =    11.9350

     37  C    Isotropic =    48.3060   Anisotropy =   190.3307

     38  H    Isotropic =    24.2164   Anisotropy =     6.1379

     39  C    Isotropic =    44.7970   Anisotropy =   198.4593

     40  H    Isotropic =    23.9351   Anisotropy =     3.7272

     41  C    Isotropic =    49.3568   Anisotropy =   187.3159

     42  H    Isotropic =    23.8981   Anisotropy =     6.9453

     43  C    Isotropic =    41.9490   Anisotropy =   181.4310

     44  H    Isotropic =    23.1144   Anisotropy =     9.5912

     45  C    Isotropic =    47.5298   Anisotropy =   166.6031

     46  C    Isotropic =    42.3298   Anisotropy =   199.4452

     47  H    Isotropic =    22.2595   Anisotropy =    10.2753

     48  C    Isotropic =    47.5933   Anisotropy =   191.1105

     49  H    Isotropic =    23.6188   Anisotropy =     6.5153

     50  C    Isotropic =    44.8903   Anisotropy =   198.9573

     51  H    Isotropic =    23.7983   Anisotropy =     3.5965

     52  C    Isotropic =    49.5888   Anisotropy =   187.1881

     53  H    Isotropic =    24.0510   Anisotropy =     6.8059

     54  C    Isotropic =    42.6552   Anisotropy =   180.9683

     55  H    Isotropic =    23.7409   Anisotropy =    10.4411

     56  C    Isotropic =    48.4076   Anisotropy =   170.1124

     57  C    Isotropic =    45.3086   Anisotropy =   180.7065

     58  H    Isotropic =    23.7672   Anisotropy =     9.1147

     59  C    Isotropic =    50.7890   Anisotropy =   186.0563

     60  H    Isotropic =    24.1320   Anisotropy =     6.7296

     61  C    Isotropic =    45.8396   Anisotropy =   198.0510

     62  H    Isotropic =    24.3341   Anisotropy =     3.2439

     63  C    Isotropic =    48.2005   Anisotropy =   193.0823

     64  H    Isotropic =    24.5747   Anisotropy =     5.5335

     65  C    Isotropic =    44.3935   Anisotropy =   197.5654

     66  H    Isotropic =    24.6569   Anisotropy =    11.8050

     67  Rh   Isotropic =  -312.8720   Anisotropy =   355.3447

     68  C    Isotropic =    78.2629   Anisotropy =   122.2168

     69  C    Isotropic =    71.1516   Anisotropy =   125.1266

     70  C    Isotropic =    79.6868   Anisotropy =   120.2471

     71  C    Isotropic =    72.3671   Anisotropy =   123.7430

     72  C    Isotropic =   154.1241   Anisotropy =    24.3992

     73  H    Isotropic =    26.8190   Anisotropy =     6.7588

     74  H    Isotropic =    26.2983   Anisotropy =     2.6646

     75  C    Isotropic =   147.4853   Anisotropy =    28.2343

     76  C    Isotropic =   154.1050   Anisotropy =    24.4254

     77  H    Isotropic =    26.8256   Anisotropy =     5.3539

     78  C    Isotropic =   148.2331   Anisotropy =    28.5185

     79  H    Isotropic =    26.7002   Anisotropy =     4.0969

     80  H    Isotropic =    29.7993   Anisotropy =    11.7578

     81  H    Isotropic =    29.7387   Anisotropy =     9.8721

     82  H    Isotropic =    29.0158   Anisotropy =    12.6485

     83  H    Isotropic =    28.7879   Anisotropy =     7.4037

     84  H    Isotropic =    29.6492   Anisotropy =     9.8272

     85  H    Isotropic =    29.6689   Anisotropy =    11.2589

     86  H    Isotropic =    29.2991   Anisotropy =     7.1438

     87  H    Isotropic =    29.2359   Anisotropy =    12.7001

 The electronic state is 1-A.
 Alpha  occ. eigenvalues --  -77.23743 -77.23401 -19.19185 -14.44970 -10.37586
 Alpha  occ. eigenvalues --  -10.30807 -10.30076 -10.29862 -10.29559 -10.29534
 Alpha  occ. eigenvalues --  -10.29424 -10.29058 -10.29040 -10.28996 -10.28759
 Alpha  occ. eigenvalues --  -10.28709 -10.28705 -10.28564 -10.28355 -10.28036
 Alpha  occ. eigenvalues --  -10.28035 -10.28021 -10.27980 -10.27890 -10.27853
 Alpha  occ. eigenvalues --  -10.27840 -10.27643 -10.27584 -10.27415 -10.27393
 Alpha  occ. eigenvalues --  -10.27348 -10.27309 -10.27239 -10.27234 -10.27222
 Alpha  occ. eigenvalues --  -10.27206 -10.27161 -10.27128 -10.27028 -10.26897
 Alpha  occ. eigenvalues --  -10.25327 -10.24828 -10.24538 -10.24384 -10.24123
 Alpha  occ. eigenvalues --   -6.69702  -6.69351  -4.85980  -4.85934  -4.85623
 Alpha  occ. eigenvalues --   -4.85603  -4.85575  -4.85266  -3.31423  -2.08321
 Alpha  occ. eigenvalues --   -2.07633  -2.04894  -1.14204  -1.03697  -0.97004
 Alpha  occ. eigenvalues --   -0.96438  -0.96042  -0.95686  -0.94396  -0.93047
 Alpha  occ. eigenvalues --   -0.91156  -0.89129  -0.88010  -0.87220  -0.86565
 Alpha  occ. eigenvalues --   -0.85657  -0.85175  -0.85121  -0.84866  -0.84708
 Alpha  occ. eigenvalues --   -0.84537  -0.83136  -0.82427  -0.80343  -0.79205
 Alpha  occ. eigenvalues --   -0.77821  -0.75533  -0.73166  -0.71579  -0.71342
 Alpha  occ. eigenvalues --   -0.71090  -0.70592  -0.70476  -0.70361  -0.70329
 Alpha  occ. eigenvalues --   -0.69907  -0.69216  -0.66938  -0.65892  -0.65787
 Alpha  occ. eigenvalues --   -0.65293  -0.62818  -0.62633  -0.62079  -0.61761
 Alpha  occ. eigenvalues --   -0.61650  -0.60333  -0.59897  -0.59108  -0.57506
 Alpha  occ. eigenvalues --   -0.56995  -0.56823  -0.56458  -0.56297  -0.56049
 Alpha  occ. eigenvalues --   -0.55881  -0.55509  -0.55461  -0.55273  -0.54869
 Alpha  occ. eigenvalues --   -0.54493  -0.53722  -0.53641  -0.53169  -0.53046
 Alpha  occ. eigenvalues --   -0.52678  -0.52576  -0.52485  -0.52381  -0.52097
 Alpha  occ. eigenvalues --   -0.51854  -0.51343  -0.51099  -0.50637  -0.49765
 Alpha  occ. eigenvalues --   -0.49542  -0.48973  -0.48464  -0.48079  -0.47886
 Alpha  occ. eigenvalues --   -0.47749  -0.47567  -0.47238  -0.46762  -0.46101
 Alpha  occ. eigenvalues --   -0.46013  -0.45841  -0.45403  -0.45078  -0.44928
 Alpha  occ. eigenvalues --   -0.44678  -0.44242  -0.43891  -0.43680  -0.43400
 Alpha  occ. eigenvalues --   -0.43104  -0.43063  -0.42747  -0.42358  -0.42252
 Alpha  occ. eigenvalues --   -0.41149  -0.39515  -0.37861  -0.37446  -0.36897
 Alpha  occ. eigenvalues --   -0.36490  -0.35997  -0.35875  -0.35757  -0.35616
 Alpha  occ. eigenvalues --   -0.35424  -0.35334  -0.35110  -0.34630  -0.34108
 Alpha  occ. eigenvalues --   -0.33424  -0.33020  -0.30657  -0.30595
 Alpha virt. eigenvalues --   -0.16521  -0.14586  -0.14056  -0.13376  -0.12491
 Alpha virt. eigenvalues --   -0.12002  -0.11482  -0.11039  -0.10824  -0.10745
 Alpha virt. eigenvalues --   -0.10049  -0.09266  -0.08487  -0.07852  -0.06943

 Mulliken charges:
               1
     1  P    0.458900
     2  P    0.291651
     3  O   -0.398167
     4  N   -0.216208
     5  H    0.252212
     6  C   -0.483366
     7  H    0.257345
     8  C   -0.386409
     9  H    0.206464
    10  H    0.142221
    11  C    0.355211
    12  C    0.163380
    13  C   -0.225135
    14  H    0.115008
    15  C   -0.115429
    16  H    0.124819
    17  C   -0.112427
    18  H    0.127973
    19  C   -0.093506
    20  H    0.124451
    21  C   -0.168116
    22  H    0.173652
    23  C   -0.168255
    24  C   -0.058326
    25  H    0.164985
    26  C   -0.119038
    27  H    0.132455
    28  C   -0.093641
    29  H    0.138356
    30  C   -0.087574
    31  H    0.134641
    32  C   -0.127595
    33  H    0.159770
    34  C   -0.283924
    35  C   -0.069659
    36  H    0.162619
    37  C   -0.083958
    38  H    0.139037
    39  C   -0.090018
    40  H    0.140744
    41  C   -0.109106
    42  H    0.130966
    43  C   -0.073521
    44  H    0.180618
    45  C   -0.321827
    46  C   -0.053015
    47  H    0.233028
    48  C   -0.121714
    49  H    0.133042
    50  C   -0.071387
    51  H    0.138291
    52  C   -0.144729
    53  H    0.127551
    54  C    0.036615
    55  H    0.116668
    56  C   -0.207243
    57  C   -0.099609
    58  H    0.176479
    59  C   -0.108492
    60  H    0.130151
    61  C   -0.080731
    62  H    0.137051
    63  C   -0.103118
    64  H    0.133830
    65  C    0.010424
    66  H    0.168655
    67  Rh  -0.578042
    68  C   -0.025507
    69  C   -0.108921
    70  C   -0.067647
    71  C   -0.091971
    72  C   -0.367093
    73  H    0.176807
    74  H    0.216637
    75  C   -0.219418
    76  C   -0.351920
    77  H    0.206122
    78  C   -0.212625
    79  H    0.204107
    80  H    0.168108
    81  H    0.167435
    82  H    0.174068
    83  H    0.121821
    84  H    0.168363
    85  H    0.167117
    86  H    0.136573
    87  H    0.171964
 Sum of Mulliken charges =   1.00000

 Dipole moment (field-independent basis, Debye):
    X=              3.2427    Y=              0.8686    Z=             -2.5174  Tot=              4.1960
 Quadrupole moment (field-independent basis, Debye-Ang):
   XX=           -229.4858   YY=           -249.0803   ZZ=           -246.6085
   XY=              2.2671   XZ=              9.8635   YZ=             -9.2147

 Summary of Natural Population Analysis:

                                       Natural Population
                Natural  -----------------------------------------------
    Atom  No    Charge         Core      Valence    Rydberg      Total
 -----------------------------------------------------------------------
      P    1    1.13020      9.99641     3.82315    0.05024    13.86980
      P    2    1.10954      9.99645     3.84260    0.05142    13.89046
      O    3   -0.61596      1.99975     6.60378    0.01243     8.61596
      N    4   -0.54887      1.99941     5.53433    0.01512     7.54887
      H    5    0.39271      0.00000     0.60445    0.00284     0.60729
      C    6   -0.73405      1.99939     4.71133    0.02334     6.73405
      H    7    0.27725      0.00000     0.72019    0.00256     0.72275
      C    8   -0.49847      1.99927     4.48563    0.01358     6.49847
      H    9    0.24808      0.00000     0.74935    0.00257     0.75192
      H   10    0.21889      0.00000     0.77844    0.00268     0.78111
      C   11    0.65015      1.99943     3.31288    0.03755     5.34985
      C   12    0.12549      1.99892     3.85677    0.01881     5.87451
      C   13   -0.23273      1.99912     4.21926    0.01436     6.23273
      H   14    0.20154      0.00000     0.79686    0.00160     0.79846
      C   15   -0.18722      1.99921     4.17283    0.01518     6.18722
      H   16    0.21669      0.00000     0.78211    0.00120     0.78331
      C   17   -0.21282      1.99920     4.19839    0.01523     6.21282
      H   18    0.21766      0.00000     0.78114    0.00120     0.78234
      C   19   -0.18228      1.99922     4.16818    0.01488     6.18228
      H   20    0.21591      0.00000     0.78293    0.00116     0.78409
      C   21   -0.23312      1.99910     4.21965    0.01438     6.23312
      H   22    0.24670      0.00000     0.75155    0.00175     0.75330
      C   23   -0.33960      1.99899     4.31699    0.02362     6.33960
      C   24   -0.19402      1.99909     4.17978    0.01515     6.19402
      H   25    0.21518      0.00000     0.78267    0.00214     0.78482
      C   26   -0.18695      1.99920     4.17319    0.01455     6.18695
      H   27    0.22240      0.00000     0.77637    0.00123     0.77760
      C   28   -0.18179      1.99920     4.16795    0.01463     6.18179
      H   29    0.22288      0.00000     0.77595    0.00117     0.77712
      C   30   -0.19049      1.99920     4.17661    0.01469     6.19049
      H   31    0.22240      0.00000     0.77637    0.00123     0.77760
      C   32   -0.20347      1.99910     4.18914    0.01523     6.20347
      H   33    0.21808      0.00000     0.78014    0.00178     0.78192
      C   34   -0.34605      1.99899     4.32344    0.02362     6.34605
      C   35   -0.19435      1.99909     4.17936    0.01590     6.19435
      H   36    0.22517      0.00000     0.77297    0.00186     0.77483
      C   37   -0.19146      1.99920     4.17766    0.01461     6.19146
      H   38    0.22490      0.00000     0.77388    0.00122     0.77510
      C   39   -0.17572      1.99921     4.16194    0.01458     6.17572
      H   40    0.22383      0.00000     0.77500    0.00117     0.77617
      C   41   -0.19797      1.99920     4.18412    0.01465     6.19797
      H   42    0.22107      0.00000     0.77770    0.00123     0.77893
      C   43   -0.19385      1.99909     4.17907    0.01569     6.19385
      H   44    0.22029      0.00000     0.77763    0.00208     0.77971
      C   45   -0.34803      1.99899     4.32578    0.02326     6.34803
      C   46   -0.21094      1.99909     4.19601    0.01584     6.21094
      H   47    0.25262      0.00000     0.74508    0.00230     0.74738
      C   48   -0.19342      1.99919     4.17968    0.01455     6.19342
      H   49    0.22314      0.00000     0.77563    0.00123     0.77686
      C   50   -0.17486      1.99920     4.16113    0.01452     6.17486
      H   51    0.22176      0.00000     0.77706    0.00118     0.77824
      C   52   -0.19786      1.99919     4.18417    0.01449     6.19786
      H   53    0.22031      0.00000     0.77846    0.00124     0.77969
      C   54   -0.17895      1.99910     4.16434    0.01551     6.17895
      H   55    0.21407      0.00000     0.78396    0.00197     0.78593
      C   56   -0.34794      1.99898     4.32494    0.02402     6.34794
      C   57   -0.20638      1.99909     4.19180    0.01549     6.20638
      H   58    0.21449      0.00000     0.78328    0.00223     0.78551
      C   59   -0.20269      1.99919     4.18860    0.01490     6.20269
      H   60    0.21911      0.00000     0.77963    0.00126     0.78089
      C   61   -0.17645      1.99920     4.16263    0.01462     6.17645
      H   62    0.22270      0.00000     0.77611    0.00119     0.77730
      C   63   -0.18543      1.99919     4.17184    0.01440     6.18543
      H   64    0.22431      0.00000     0.77447    0.00122     0.77569
      C   65   -0.17949      1.99909     4.16489    0.01551     6.17949
      H   66    0.22783      0.00000     0.77029    0.00188     0.77217
     Rh   67   -0.39799     35.98619     9.38390    0.02789    45.39799
      C   68   -0.18316      1.99907     4.16464    0.01945     6.18316
      C   69   -0.15561      1.99908     4.13667    0.01986     6.15561
      C   70   -0.18113      1.99907     4.16252    0.01953     6.18113
      C   71   -0.15695      1.99908     4.13828    0.01959     6.15695
      C   72   -0.42383      1.99936     4.41268    0.01179     6.42383
      H   73    0.22246      0.00000     0.77558    0.00196     0.77754
      H   74    0.23170      0.00000     0.76618    0.00213     0.76830
      C   75   -0.41739      1.99935     4.40533    0.01271     6.41739
      C   76   -0.42412      1.99936     4.41283    0.01192     6.42412
      H   77    0.22533      0.00000     0.77255    0.00212     0.77467
      C   78   -0.41881      1.99935     4.40686    0.01260     6.41881
      H   79    0.23018      0.00000     0.76760    0.00222     0.76982
      H   80    0.22809      0.00000     0.77042    0.00149     0.77191
      H   81    0.21499      0.00000     0.78304    0.00197     0.78501
      H   82    0.23452      0.00000     0.76359    0.00189     0.76548
      H   83    0.21147      0.00000     0.78691    0.00161     0.78853
      H   84    0.21598      0.00000     0.78206    0.00196     0.78402
      H   85    0.22684      0.00000     0.77168    0.00149     0.77316
      H   86    0.21925      0.00000     0.77919    0.00156     0.78075
      H   87    0.23451      0.00000     0.76363    0.00186     0.76549
 =======================================================================
   * Total *    1.00000    141.94386   233.13966    0.91649   376.00000

 Normal termination of Gaussian 16 at Wed Jan 22 18:59:10 2025.
