 Gaussian 16, Revision B.01,
 Gaussian 16:  ES64L-G16RevB.01 20-Dec-2017

 ------------------------------------------
 # nmr=giao b3lyp/genecp pop=nbo scfcyc=200
 ------------------------------------------

 ---------
 MS-68_SPE
 ---------
 Symbolic Z-matrix:
 Charge =  1 Multiplicity = 1

                         Standard orientation:
 ---------------------------------------------------------------------
 Center     Atomic      Atomic             Coordinates (Angstroms)
 Number     Number       Type             X           Y           Z
 ---------------------------------------------------------------------
      1         15           0        1.084640   -0.294561    1.356840
      2         15           0        1.022080    0.461789   -1.342510
      3          6           0        1.017210    0.552209    2.993610
      4          6           0        1.839540    0.052589    4.011840
      5          1           0        2.447070   -0.828482    3.841640
      6          6           0        1.866570    0.663089    5.258710
      7          1           0        2.502750    0.263298    6.038380
      8          6           0        1.076351    1.782749    5.505690
      9          1           0        1.097021    2.258139    6.478110
     10          6           0        0.254911    2.281839    4.502440
     11          1           0       -0.372378    3.144040    4.690630
     12          6           0        0.224801    1.672359    3.250660
     13          1           0       -0.438979    2.071610    2.496300
     14          6           0        0.472669   -1.992041    1.707110
     15          6           0       -0.538341   -2.221350    2.647070
     16          1           0       -0.985311   -1.394360    3.183270
     17          6           0       -0.968322   -3.516560    2.903680
     18          1           0       -1.751812   -3.686909    3.631160
     19          6           0       -0.395003   -4.591580    2.229930
     20          1           0       -0.731053   -5.600000    2.436150
     21          6           0        0.611618   -4.370781    1.296930
     22          1           0        1.063037   -5.205451    0.775470
     23          6           0        1.047528   -3.075741    1.038170
     24          1           0        1.838488   -2.903691    0.318820
     25          6           0        0.337510   -0.809611   -2.472990
     26          6           0        1.089229   -1.959431   -2.729580
     27          1           0        2.053969   -2.085512   -2.254380
     28          6           0        0.605688   -2.937701   -3.592090
     29          1           0        1.196698   -3.823561   -3.787910
     30          6           0       -0.632082   -2.774350   -4.202970
     31          1           0       -1.009382   -3.534890   -4.875000
     32          6           0       -1.387351   -1.631780   -3.952480
     33          1           0       -2.353111   -1.504549   -4.424760
     34          6           0       -0.908270   -0.651770   -3.093360
     35          1           0       -1.503050    0.233660   -2.912520
     36          6           0        0.917521    2.064689   -2.254170
     37          6           0        1.033982    3.269449   -1.550440
     38          1           0        1.129992    3.273619   -0.471480
     39          6           0        1.041713    4.483279   -2.225600
     40          1           0        1.119603    5.407249   -1.666520
     41          6           0        0.954143    4.511389   -3.614530
     42          1           0        0.961423    5.457749   -4.140200
     43          6           0        0.864012    3.319279   -4.322890
     44          1           0        0.802792    3.332049   -5.403860
     45          6           0        0.847301    2.101019   -3.649950
     46          1           0        0.773161    1.184339   -4.218550
     47          6           0       -0.096550    0.631700    0.192240
     48          1           0        0.093231    1.671000    0.470010
     49          6           0       -1.582260    0.424070    0.153840
     50          6           0       -2.172330   -0.820459   -0.058480
     51          1           0       -1.595391   -1.719040   -0.209530
     52          6           0       -3.567020   -0.913818   -0.084280
     53          6           0       -3.805879    1.346842    0.291160
     54         45           0        2.941940   -0.027762   -0.074500
     55          6           0        4.627930    0.239997    1.446540
     56          6           0        4.529459   -1.096203    1.123990
     57          6           0        4.584650   -0.171133   -1.651230
     58          6           0        4.402291    1.155107   -1.318270
     59          6           0        5.674601    1.199576    0.912940
     60          1           0        4.096500    0.575637    2.329860
     61          1           0        3.962649   -1.731013    1.797930
     62          6           0        5.375779   -1.848213    0.125850
     63          6           0        5.713039   -1.059314   -1.159120
     64          1           0        4.061710   -0.526493   -2.532810
     65          6           0        5.223331    1.966937   -0.347460
     66          1           0        3.774161    1.748217   -1.974130
     67          1           0        5.907441    1.925036    1.694240
     68          1           0        6.601290    0.660076    0.718750
     69          1           0        6.303069   -2.184544    0.606290
     70          1           0        4.837948   -2.759643   -0.145140
     71          1           0        6.611050   -0.459964   -1.010410
     72          1           0        5.959109   -1.773924   -1.946330
     73          1           0        4.622142    2.827547   -0.046370
     74          1           0        6.099001    2.380656   -0.863460
     75          7           0       -4.360010    0.148152    0.089940
     76          6           0       -2.421209    1.524191    0.326460
     77          1           0       -2.036229    2.522011    0.485200
     78          6           0       -4.227961   -2.230338   -0.310640
     79          6           0       -5.618281   -2.359167   -0.249330
     80          6           0       -3.981192   -4.462868   -0.779870
     81          6           0       -6.185072   -3.606197   -0.468550
     82          1           0       -6.223131   -1.491047   -0.033880
     83          6           0       -5.353763   -4.686067   -0.740510
     84          1           0       -3.297143   -5.278899   -0.989080
     85          1           0       -7.259712   -3.733806   -0.426130
     86          1           0       -5.753233   -5.676027   -0.917900
     87          6           0       -4.716909    2.510322    0.481130
     88          6           0       -6.102819    2.366923    0.382230
     89          6           0       -4.917557    4.753342    0.923270
     90          6           0       -6.905268    3.483503    0.567900
     91          1           0       -6.522739    1.396243    0.164240
     92          6           0       -6.305877    4.705983    0.844660
     93          1           0       -4.410447    5.688412    1.137350
     94          1           0       -7.982748    3.400854    0.496560
     95          1           0       -6.893387    5.601913    0.996340
     96          7           0       -4.136478    3.689602    0.747830
     97          7           0       -3.424732   -3.271529   -0.571270
 ---------------------------------------------------------------------

 SCF Done:  E(RB3LYP) =  -2813.12237171     A.U. after   16 cycles

      1  P    Isotropic =   288.8352   Anisotropy =    64.7870

      2  P    Isotropic =   283.6719   Anisotropy =    67.7523

      3  C    Isotropic =    43.6866   Anisotropy =   169.4006

      4  C    Isotropic =    47.1281   Anisotropy =   185.4073

      5  H    Isotropic =    24.9274   Anisotropy =    11.3197

      6  C    Isotropic =    48.2226   Anisotropy =   190.7004

      7  H    Isotropic =    24.2758   Anisotropy =     6.7728

      8  C    Isotropic =    46.6359   Anisotropy =   194.6945

      9  H    Isotropic =    24.1201   Anisotropy =     3.7203

     10  C    Isotropic =    48.8624   Anisotropy =   189.2885

     11  H    Isotropic =    24.0244   Anisotropy =     7.0108

     12  C    Isotropic =    49.9662   Anisotropy =   184.6740

     13  H    Isotropic =    23.6326   Anisotropy =    10.9705

     14  C    Isotropic =    46.9203   Anisotropy =   167.9957

     15  C    Isotropic =    42.5781   Anisotropy =   196.9951

     16  H    Isotropic =    25.3633   Anisotropy =    10.1366

     17  C    Isotropic =    49.0140   Anisotropy =   191.7797

     18  H    Isotropic =    24.8399   Anisotropy =     5.5971

     19  C    Isotropic =    44.9251   Anisotropy =   199.5101

     20  H    Isotropic =    24.2200   Anisotropy =     2.7209

     21  C    Isotropic =    50.1139   Anisotropy =   186.8607

     22  H    Isotropic =    24.0641   Anisotropy =     6.9463

     23  C    Isotropic =    41.4447   Anisotropy =   179.4173

     24  H    Isotropic =    23.0844   Anisotropy =     9.5807

     25  C    Isotropic =    52.9031   Anisotropy =   166.2069

     26  C    Isotropic =    40.4632   Anisotropy =   179.1589

     27  H    Isotropic =    23.1165   Anisotropy =    10.4078

     28  C    Isotropic =    49.6087   Anisotropy =   187.6947

     29  H    Isotropic =    23.9427   Anisotropy =     6.7343

     30  C    Isotropic =    44.0783   Anisotropy =   200.1521

     31  H    Isotropic =    24.1037   Anisotropy =     3.0592

     32  C    Isotropic =    49.4772   Anisotropy =   191.4715

     33  H    Isotropic =    24.7690   Anisotropy =     5.7405

     34  C    Isotropic =    41.6860   Anisotropy =   198.5150

     35  H    Isotropic =    25.2507   Anisotropy =     8.4282

     36  C    Isotropic =    44.4617   Anisotropy =   168.4646

     37  C    Isotropic =    49.0550   Anisotropy =   188.0548

     38  H    Isotropic =    23.5058   Anisotropy =    10.8817

     39  C    Isotropic =    48.8865   Anisotropy =   189.5318

     40  H    Isotropic =    23.8750   Anisotropy =     6.7597

     41  C    Isotropic =    46.5011   Anisotropy =   195.1385

     42  H    Isotropic =    24.1387   Anisotropy =     3.4566

     43  C    Isotropic =    48.8055   Anisotropy =   189.4635

     44  H    Isotropic =    24.4485   Anisotropy =     6.6329

     45  C    Isotropic =    46.8015   Anisotropy =   191.1999

     46  H    Isotropic =    25.0429   Anisotropy =    13.3004

     47  C    Isotropic =   111.8241   Anisotropy =    66.8702

     48  H    Isotropic =    25.4303   Anisotropy =     5.6005

     49  C    Isotropic =    38.5093   Anisotropy =   186.7275

     50  C    Isotropic =    56.3515   Anisotropy =   186.9263

     51  H    Isotropic =    25.1768   Anisotropy =     8.7152

     52  C    Isotropic =    22.4267   Anisotropy =   162.2739

     53  C    Isotropic =    20.4467   Anisotropy =   163.8373

     54  Rh   Isotropic =  -295.3109   Anisotropy =   326.8620

     55  C    Isotropic =    72.9892   Anisotropy =   130.6382

     56  C    Isotropic =    78.9805   Anisotropy =   114.1722

     57  C    Isotropic =    80.8104   Anisotropy =   117.7879

     58  C    Isotropic =    71.8086   Anisotropy =   124.2603

     59  C    Isotropic =   153.8433   Anisotropy =    25.3359

     60  H    Isotropic =    26.8809   Anisotropy =     6.3582

     61  H    Isotropic =    26.0826   Anisotropy =     4.3003

     62  C    Isotropic =   147.6952   Anisotropy =    28.9773

     63  C    Isotropic =   153.8583   Anisotropy =    25.4063

     64  H    Isotropic =    26.8851   Anisotropy =     6.9625

     65  C    Isotropic =   147.9434   Anisotropy =    28.8473

     66  H    Isotropic =    27.1605   Anisotropy =     4.4056

     67  H    Isotropic =    29.9380   Anisotropy =    11.1985

     68  H    Isotropic =    29.7315   Anisotropy =     9.8301

     69  H    Isotropic =    28.9103   Anisotropy =    12.9358

     70  H    Isotropic =    28.7687   Anisotropy =     8.3033

     71  H    Isotropic =    29.6465   Anisotropy =     9.9051

     72  H    Isotropic =    29.6499   Anisotropy =    11.8584

     73  H    Isotropic =    29.3090   Anisotropy =     7.2493

     74  H    Isotropic =    29.3624   Anisotropy =    12.6198

     75  N    Isotropic =   -70.6164   Anisotropy =   532.0652

     76  C    Isotropic =    59.4600   Anisotropy =   151.1171

     77  H    Isotropic =    22.8695   Anisotropy =    14.1779

     78  C    Isotropic =    22.9975   Anisotropy =   169.7783

     79  C    Isotropic =    58.4953   Anisotropy =   184.0716

     80  C    Isotropic =    30.6295   Anisotropy =   169.1013

     81  C    Isotropic =    42.1541   Anisotropy =   203.3540

     82  H    Isotropic =    23.0049   Anisotropy =    10.2388

     83  C    Isotropic =    55.0410   Anisotropy =   177.2305

     84  H    Isotropic =    23.7655   Anisotropy =     9.1918

     85  H    Isotropic =    24.0277   Anisotropy =     5.2215

     86  H    Isotropic =    24.6807   Anisotropy =     4.8323

     87  C    Isotropic =    23.0055   Anisotropy =   168.8493

     88  C    Isotropic =    58.7484   Anisotropy =   183.7654

     89  C    Isotropic =    29.5923   Anisotropy =   169.2755

     90  C    Isotropic =    41.8665   Anisotropy =   203.7611

     91  H    Isotropic =    22.9154   Anisotropy =    10.7503

     92  C    Isotropic =    54.2439   Anisotropy =   177.8731

     93  H    Isotropic =    23.0357   Anisotropy =     7.7030

     94  H    Isotropic =    23.8994   Anisotropy =     5.6775

     95  H    Isotropic =    24.4481   Anisotropy =     4.6073

     96  N    Isotropic =   -79.5791   Anisotropy =   547.2918

     97  N    Isotropic =   -82.3276   Anisotropy =   553.0397

 The electronic state is 1-A.
 Alpha  occ. eigenvalues --  -77.23476 -77.23366 -14.39219 -14.38620 -14.38526
 Alpha  occ. eigenvalues --  -10.31020 -10.29715 -10.29707 -10.29221 -10.29162
 Alpha  occ. eigenvalues --  -10.29107 -10.28999 -10.28969 -10.28870 -10.28741
 Alpha  occ. eigenvalues --  -10.28599 -10.28527 -10.28484 -10.28319 -10.27980
 Alpha  occ. eigenvalues --  -10.27966 -10.27880 -10.27822 -10.27816 -10.27807
 Alpha  occ. eigenvalues --  -10.27695 -10.27614 -10.27597 -10.27385 -10.27200
 Alpha  occ. eigenvalues --  -10.27135 -10.27128 -10.27091 -10.27033 -10.27006
 Alpha  occ. eigenvalues --  -10.27003 -10.26999 -10.26955 -10.26941 -10.26911
 Alpha  occ. eigenvalues --  -10.26889 -10.26877 -10.26826 -10.26784 -10.26643
 Alpha  occ. eigenvalues --  -10.26214 -10.26198 -10.26041 -10.26026 -10.25412
 Alpha  occ. eigenvalues --  -10.25218 -10.25208 -10.25091  -6.69405  -6.69302
 Alpha  occ. eigenvalues --   -4.85687  -4.85625  -4.85593  -4.85514  -4.85317
 Alpha  occ. eigenvalues --   -4.85211  -3.31056  -2.07945  -2.07298  -2.04521
 Alpha  occ. eigenvalues --   -1.04162  -1.02342  -1.01379  -0.96393  -0.96130
 Alpha  occ. eigenvalues --   -0.95587  -0.95426  -0.93989  -0.92395  -0.88706
 Alpha  occ. eigenvalues --   -0.88367  -0.87982  -0.87606  -0.87567  -0.87399
 Alpha  occ. eigenvalues --   -0.86777  -0.84909  -0.84795  -0.84766  -0.84523
 Alpha  occ. eigenvalues --   -0.84352  -0.84250  -0.84101  -0.82768  -0.81364
 Alpha  occ. eigenvalues --   -0.79887  -0.77374  -0.75165  -0.74802  -0.73835
 Alpha  occ. eigenvalues --   -0.72439  -0.70842  -0.70605  -0.70540  -0.70495
 Alpha  occ. eigenvalues --   -0.70391  -0.70180  -0.70101  -0.69754  -0.69636
 Alpha  occ. eigenvalues --   -0.68124  -0.67146  -0.66536  -0.65397  -0.64973
 Alpha  occ. eigenvalues --   -0.62273  -0.62152  -0.61829  -0.61636  -0.60236
 Alpha  occ. eigenvalues --   -0.59955  -0.59589  -0.59493  -0.58133  -0.57246
 Alpha  occ. eigenvalues --   -0.56628  -0.56021  -0.55948  -0.55797  -0.55742
 Alpha  occ. eigenvalues --   -0.55550  -0.55440  -0.55189  -0.54959  -0.54930
 Alpha  occ. eigenvalues --   -0.54676  -0.54252  -0.53939  -0.53565  -0.53209
 Alpha  occ. eigenvalues --   -0.52530  -0.52400  -0.52340  -0.52229  -0.52100
 Alpha  occ. eigenvalues --   -0.52011  -0.51866  -0.51654  -0.51079  -0.50915
 Alpha  occ. eigenvalues --   -0.50696  -0.50222  -0.49106  -0.48842  -0.48284
 Alpha  occ. eigenvalues --   -0.48218  -0.48181  -0.47748  -0.47450  -0.47340
 Alpha  occ. eigenvalues --   -0.47029  -0.46819  -0.46680  -0.46248  -0.45983
 Alpha  occ. eigenvalues --   -0.45721  -0.45558  -0.45210  -0.44786  -0.44678
 Alpha  occ. eigenvalues --   -0.44560  -0.44503  -0.44280  -0.44026  -0.43387
 Alpha  occ. eigenvalues --   -0.43061  -0.42956  -0.42834  -0.42591  -0.42071
 Alpha  occ. eigenvalues --   -0.40954  -0.38419  -0.37703  -0.37379  -0.36966
 Alpha  occ. eigenvalues --   -0.36339  -0.36191  -0.35941  -0.35730  -0.35652
 Alpha  occ. eigenvalues --   -0.35582  -0.35404  -0.35310  -0.34955  -0.34845
 Alpha  occ. eigenvalues --   -0.34329  -0.34072  -0.33934  -0.33420  -0.33362
 Alpha  occ. eigenvalues --   -0.33092  -0.32806  -0.30934  -0.30252
 Alpha virt. eigenvalues --   -0.15862  -0.14508  -0.14043  -0.13832  -0.13312
 Alpha virt. eigenvalues --   -0.12431  -0.12146  -0.11584  -0.11232  -0.10562
 Alpha virt. eigenvalues --   -0.10356  -0.10027  -0.09939  -0.09457  -0.08866

 Mulliken charges:
               1
     1  P    0.407114
     2  P    0.418491
     3  C   -0.176069
     4  C   -0.108124
     5  H    0.160487
     6  C   -0.094730
     7  H    0.131612
     8  C   -0.083641
     9  H    0.137636
    10  C   -0.124504
    11  H    0.132251
    12  C   -0.021922
    13  H    0.126869
    14  C   -0.328508
    15  C    0.022828
    16  H    0.151251
    17  C   -0.089090
    18  H    0.131882
    19  C   -0.078254
    20  H    0.133491
    21  C   -0.118301
    22  H    0.124509
    23  C    0.027702
    24  H    0.141615
    25  C   -0.257082
    26  C   -0.038717
    27  H    0.158047
    28  C   -0.118700
    29  H    0.126925
    30  C   -0.086021
    31  H    0.133722
    32  C   -0.072292
    33  H    0.134070
    34  C   -0.040683
    35  H    0.170606
    36  C   -0.185041
    37  C   -0.071521
    38  H    0.138614
    39  C   -0.099571
    40  H    0.129600
    41  C   -0.089643
    42  H    0.137267
    43  C   -0.108407
    44  H    0.133773
    45  C   -0.050197
    46  H    0.166180
    47  C   -0.805513
    48  H    0.239862
    49  C    0.331950
    50  C   -0.171260
    51  H    0.214938
    52  C    0.071611
    53  C    0.110644
    54  Rh  -0.675767
    55  C   -0.027205
    56  C   -0.097722
    57  C   -0.019323
    58  C   -0.106367
    59  C   -0.348415
    60  H    0.211117
    61  H    0.189411
    62  C   -0.228331
    63  C   -0.345766
    64  H    0.186013
    65  C   -0.235507
    66  H    0.221933
    67  H    0.169259
    68  H    0.165610
    69  H    0.171763
    70  H    0.129846
    71  H    0.167597
    72  H    0.166923
    73  H    0.134121
    74  H    0.169687
    75  N    0.000864
    76  C   -0.241605
    77  H    0.154528
    78  C   -0.204270
    79  C   -0.050593
    80  C   -0.145116
    81  C   -0.140320
    82  H    0.174699
    83  C   -0.021947
    84  H    0.102499
    85  H    0.126717
    86  H    0.141273
    87  C   -0.213835
    88  C   -0.050956
    89  C   -0.139238
    90  C   -0.135090
    91  H    0.171228
    92  C   -0.025450
    93  H    0.107189
    94  H    0.126467
    95  H    0.141864
    96  N   -0.049762
    97  N   -0.055778
 Sum of Mulliken charges =   1.00000

 Dipole moment (field-independent basis, Debye):
    X=              3.0185    Y=             -0.3808    Z=             -0.2464  Tot=              3.0524
 Quadrupole moment (field-independent basis, Debye-Ang):
   XX=           -245.9578   YY=           -270.5130   ZZ=           -291.5496
   XY=              0.7877   XZ=              2.1839   YZ=              5.0501

 Summary of Natural Population Analysis:

                                       Natural Population
                Natural  -----------------------------------------------
    Atom  No    Charge         Core      Valence    Rydberg      Total
 -----------------------------------------------------------------------
      P    1    1.13351      9.99637     3.81898    0.05115    13.86649
      P    2    1.13945      9.99634     3.81215    0.05206    13.86055
      C    3   -0.33676      1.99899     4.31453    0.02324     6.33676
      C    4   -0.19775      1.99909     4.18333    0.01533     6.19775
      H    5    0.21511      0.00000     0.78308    0.00181     0.78489
      C    6   -0.18993      1.99919     4.17619    0.01454     6.18993
      H    7    0.22216      0.00000     0.77661    0.00123     0.77784
      C    8   -0.18212      1.99920     4.16832    0.01459     6.18212
      H    9    0.22260      0.00000     0.77623    0.00118     0.77740
      C   10   -0.18818      1.99920     4.17438    0.01461     6.18818
      H   11    0.22267      0.00000     0.77611    0.00123     0.77733
      C   12   -0.19887      1.99908     4.18459    0.01520     6.19887
      H   13    0.21283      0.00000     0.78523    0.00194     0.78717
      C   14   -0.35626      1.99898     4.33317    0.02410     6.35626
      C   15   -0.17657      1.99909     4.16121    0.01627     6.17657
      H   16    0.22242      0.00000     0.77529    0.00229     0.77758
      C   17   -0.18889      1.99919     4.17482    0.01487     6.18889
      H   18    0.22228      0.00000     0.77645    0.00127     0.77772
      C   19   -0.16957      1.99920     4.15580    0.01457     6.16957
      H   20    0.22013      0.00000     0.77868    0.00119     0.77987
      C   21   -0.19725      1.99919     4.18348    0.01458     6.19725
      H   22    0.21844      0.00000     0.78029    0.00127     0.78156
      C   23   -0.18198      1.99909     4.16769    0.01520     6.18198
      H   24    0.21780      0.00000     0.77990    0.00230     0.78220
      C   25   -0.36270      1.99899     4.33895    0.02477     6.36270
      C   26   -0.17913      1.99910     4.16416    0.01587     6.17913
      H   27    0.21815      0.00000     0.77980    0.00205     0.78185
      C   28   -0.20034      1.99919     4.18643    0.01472     6.20034
      H   29    0.21936      0.00000     0.77940    0.00124     0.78064
      C   30   -0.16788      1.99920     4.15420    0.01447     6.16788
      H   31    0.22117      0.00000     0.77769    0.00114     0.77883
      C   32   -0.19086      1.99919     4.17663    0.01505     6.19086
      H   33    0.22341      0.00000     0.77531    0.00127     0.77659
      C   34   -0.17843      1.99910     4.16202    0.01732     6.17843
      H   35    0.22407      0.00000     0.77370    0.00223     0.77593
      C   36   -0.34157      1.99898     4.31922    0.02337     6.34157
      C   37   -0.19640      1.99909     4.18238    0.01493     6.19640
      H   38    0.20758      0.00000     0.79058    0.00185     0.79242
      C   39   -0.19049      1.99920     4.17660    0.01470     6.19049
      H   40    0.22119      0.00000     0.77757    0.00123     0.77881
      C   41   -0.18033      1.99920     4.16646    0.01466     6.18033
      H   42    0.22255      0.00000     0.77628    0.00117     0.77745
      C   43   -0.18917      1.99920     4.17530    0.01467     6.18917
      H   44    0.22248      0.00000     0.77630    0.00122     0.77752
      C   45   -0.19460      1.99910     4.18043    0.01508     6.19460
      H   46    0.22473      0.00000     0.77357    0.00169     0.77527
      C   47   -0.75038      1.99928     4.72550    0.02559     6.75038
      H   48    0.25826      0.00000     0.73865    0.00309     0.74174
      C   49   -0.04071      1.99904     4.01847    0.02319     6.04071
      C   50   -0.20856      1.99898     4.19402    0.01556     6.20856
      H   51    0.25003      0.00000     0.74685    0.00312     0.74997
      C   52    0.17124      1.99910     3.80686    0.02280     5.82876
      C   53    0.17355      1.99910     3.80404    0.02331     5.82645
     Rh   54   -0.40103     35.98579     9.38729    0.02795    45.40103
      C   55   -0.16346      1.99906     4.14500    0.01940     6.16346
      C   56   -0.17220      1.99907     4.15320    0.01992     6.17220
      C   57   -0.18427      1.99907     4.16592    0.01929     6.18427
      C   58   -0.15248      1.99910     4.13337    0.02001     6.15248
      C   59   -0.42369      1.99936     4.41252    0.01181     6.42369
      H   60    0.23094      0.00000     0.76676    0.00231     0.76906
      H   61    0.22601      0.00000     0.77205    0.00193     0.77399
      C   62   -0.41763      1.99935     4.40563    0.01264     6.41763
      C   63   -0.42252      1.99936     4.41141    0.01175     6.42252
      H   64    0.22596      0.00000     0.77212    0.00192     0.77404
      C   65   -0.41808      1.99935     4.40579    0.01294     6.41808
      H   66    0.23252      0.00000     0.76540    0.00209     0.76748
      H   67    0.22880      0.00000     0.76971    0.00149     0.77120
      H   68    0.21387      0.00000     0.78416    0.00198     0.78613
      H   69    0.23332      0.00000     0.76476    0.00192     0.76668
      H   70    0.21328      0.00000     0.78517    0.00155     0.78672
      H   71    0.21496      0.00000     0.78308    0.00197     0.78504
      H   72    0.22737      0.00000     0.77115    0.00149     0.77263
      H   73    0.21772      0.00000     0.78074    0.00154     0.78228
      H   74    0.23308      0.00000     0.76503    0.00188     0.76692
      N   75   -0.40546      1.99939     5.38998    0.01608     7.40546
      C   76   -0.21285      1.99900     4.19945    0.01440     6.21285
      H   77    0.23613      0.00000     0.76121    0.00265     0.76387
      C   78    0.14596      1.99909     3.83079    0.02416     5.85404
      C   79   -0.20959      1.99910     4.19648    0.01401     6.20959
      C   80    0.03417      1.99926     3.94343    0.02314     5.96583
      C   81   -0.16266      1.99920     4.14880    0.01465     6.16266
      H   82    0.23627      0.00000     0.76196    0.00178     0.76373
      C   83   -0.23833      1.99917     4.22471    0.01446     6.23833
      H   84    0.19094      0.00000     0.80739    0.00168     0.80906
      H   85    0.21948      0.00000     0.77933    0.00120     0.78052
      H   86    0.22151      0.00000     0.77728    0.00122     0.77849
      C   87    0.14624      1.99909     3.83142    0.02325     5.85376
      C   88   -0.20889      1.99910     4.19583    0.01396     6.20889
      C   89    0.03656      1.99926     3.94105    0.02313     5.96344
      C   90   -0.16141      1.99920     4.14757    0.01463     6.16141
      H   91    0.23517      0.00000     0.76306    0.00177     0.76483
      C   92   -0.23596      1.99917     4.22240    0.01440     6.23596
      H   93    0.19287      0.00000     0.80553    0.00160     0.80713
      H   94    0.21940      0.00000     0.77940    0.00120     0.78060
      H   95    0.22231      0.00000     0.77646    0.00122     0.77769
      N   96   -0.41994      1.99943     5.40214    0.01836     7.41994
      N   97   -0.41586      1.99943     5.39803    0.01839     7.41586
 =======================================================================
   * Total *    1.00000    157.93566   266.97782    1.08652   426.00000

 Normal termination of Gaussian 16 at Wed Jan 22 21:31:16 2025.
