 Gaussian 16, Revision B.01,
 Gaussian 16:  ES64L-G16RevB.01 20-Dec-2017

 ------------------------------------------
 # nmr=giao b3lyp/genecp pop=nbo scfcyc=200
 ------------------------------------------

 ---------
 MS-77_SPE
 ---------
 Symbolic Z-matrix:
 Charge =  1 Multiplicity = 1

                         Standard orientation:
 ---------------------------------------------------------------------
 Center     Atomic      Atomic             Coordinates (Angstroms)
 Number     Number       Type             X           Y           Z
 ---------------------------------------------------------------------
      1         15           0        1.394392    0.636609    0.059770
      2         15           0       -1.368638    0.640331    0.020370
      3          6           0        0.013693    1.961970   -0.006610
      4          6           0        2.815341   -0.617412    2.210520
      5          6           0        3.406581   -0.509462    3.621000
      6          6           0        3.740353    2.215878   -0.863190
      7          6           0        4.914693    2.217147   -1.851440
      8          6           0       -2.917859   -0.650748    2.038130
      9          6           0       -3.479679   -0.645328    3.464630
     10          6           0       -3.759117    2.215522   -0.792150
     11          6           0       -4.953007    2.229203   -1.756650
     12          1           0        0.026473    2.323210   -1.054100
     13          1           0        3.623691   -0.835672    1.504090
     14          1           0        2.127231   -1.466191    2.170840
     15          1           0        2.603592   -0.281152    4.329440
     16          1           0        4.097422    0.338937    3.658690
     17          1           0        4.138093    2.185057    0.155600
     18          1           0        3.195324    3.156508   -0.961090
     19          1           0        5.471003    1.279416   -1.751130
     20          1           0        4.523863    2.233857   -2.874050
     21          1           0       -2.332039   -1.560859    1.882960
     22          1           0       -3.751919   -0.690598    1.329360
     23          1           0       -2.649219   -0.599328    4.176680
     24          1           0       -4.065058    0.266863    3.618610
     25          1           0       -3.247476    3.177482   -0.850950
     26          1           0       -4.133717    2.118083    0.231260
     27          1           0       -4.584007    2.309703   -2.784350
     28          1           0       -5.478207    1.270483   -1.693790
     29         45           0        0.018351   -1.119640   -0.645580
     30          6           0        1.506010   -2.384191   -1.877570
     31          6           0        1.476450   -2.860981   -0.587270
     32          6           0       -1.432550   -2.879129   -0.929880
     33          6           0       -1.394350   -2.143849   -2.093940
     34          6           0        0.813330   -3.015341   -3.069550
     35          1           0        2.286061   -1.672492   -2.121640
     36          1           0        2.256050   -2.519421    0.084450
     37          6           0        0.689109   -4.040961   -0.074970
     38          6           0       -0.719031   -4.196070   -0.690250
     39          1           0       -2.231440   -2.650729   -0.233370
     40          6           0       -0.594780   -2.446810   -3.336240
     41          1           0       -2.186949   -1.420659   -2.247970
     42          1           0        1.427680   -2.847441   -3.955780
     43          1           0        0.768739   -4.095931   -2.937360
     44          1           0        1.262729   -4.963221   -0.230530
     45          1           0        0.594729   -3.930960    1.007780
     46          1           0       -0.665871   -4.759170   -1.621710
     47          1           0       -1.324941   -4.798929   -0.011870
     48          1           0       -0.503739   -1.519370   -3.906050
     49          1           0       -1.158330   -3.136689   -3.976970
     50          6           0        2.798582    1.033298   -1.105390
     51          1           0        2.334172    1.106298   -2.092520
     52          1           0        3.379282    0.105038   -1.121240
     53          6           0        2.076682    0.658949    1.793370
     54          1           0        1.228352    0.847119    2.454040
     55          1           0        2.738393    1.520868    1.892140
     56          6           0       -2.040288    0.574281    1.755070
     57          1           0       -2.596997    1.490642    1.955690
     58          1           0       -1.175588    0.584921    2.421050
     59          6           0       -2.785448    1.078372   -1.114540
     60          1           0       -3.343828    0.139652   -1.188040
     61          1           0       -2.329577    1.227861   -2.097220
     62          6           0       -4.347209   -1.867107    3.766160
     63          1           0       -4.731989   -1.833107    4.786510
     64          1           0       -5.205189   -1.921477    3.091480
     65          1           0       -3.778980   -2.794428    3.658300
     66          6           0       -5.931276    3.368944   -1.473190
     67          1           0       -5.445026    4.342923   -1.567680
     68          1           0       -6.768676    3.349204   -2.172270
     69          1           0       -6.342246    3.298014   -0.463120
     70          6           0        5.861654    3.399236   -1.645680
     71          1           0        6.294604    3.391686   -0.642360
     72          1           0        6.685284    3.370296   -2.360620
     73          1           0        5.342844    4.351807   -1.777790
     74          6           0        4.132761   -1.780623    4.060380
     75          1           0        4.962980   -2.015973    3.389810
     76          1           0        4.542161   -1.671083    5.065710
     77          1           0        3.458210   -2.640462    4.070550
     78          6           0        1.191924    3.893319    0.892340
     79          1           0        2.101824    3.320079    1.037370
     80          1           0        1.264935    4.425769   -0.069730
     81          1           0        1.139595    4.637049    1.687290
     82          6           0       -1.186026    3.877241    0.908190
     83          1           0       -1.281125    4.407201   -0.053360
     84          1           0       -2.085916    3.292711    1.069120
     85          1           0       -1.130975    4.623341    1.700760
     86          7           0        0.008904    3.035840    0.970060
 ---------------------------------------------------------------------

 SCF Done:  E(RB3LYP) =  -1910.35212879     A.U. after   15 cycles

      1  P    Isotropic =   295.3512   Anisotropy =    27.2096

      2  P    Isotropic =   294.2818   Anisotropy =    26.7927

      3  C    Isotropic =    91.4862   Anisotropy =    69.5862

      4  C    Isotropic =   150.8356   Anisotropy =    33.5248

      5  C    Isotropic =   154.4715   Anisotropy =    28.1125

      6  C    Isotropic =   153.3133   Anisotropy =    29.7127

      7  C    Isotropic =   154.5959   Anisotropy =    28.2371

      8  C    Isotropic =   151.5616   Anisotropy =    33.2765

      9  C    Isotropic =   154.4666   Anisotropy =    28.1670

     10  C    Isotropic =   153.4996   Anisotropy =    30.4092

     11  C    Isotropic =   154.5426   Anisotropy =    28.3800

     12  H    Isotropic =    28.2315   Anisotropy =     2.1112

     13  H    Isotropic =    30.6953   Anisotropy =     4.7646

     14  H    Isotropic =    30.4277   Anisotropy =     7.1843

     15  H    Isotropic =    30.4321   Anisotropy =     5.7924

     16  H    Isotropic =    30.4603   Anisotropy =     7.0198

     17  H    Isotropic =    30.5990   Anisotropy =     5.7931

     18  H    Isotropic =    30.5603   Anisotropy =     6.0407

     19  H    Isotropic =    30.6410   Anisotropy =     5.9682

     20  H    Isotropic =    30.5300   Anisotropy =     6.1831

     21  H    Isotropic =    30.4518   Anisotropy =     7.6620

     22  H    Isotropic =    30.7959   Anisotropy =     4.8900

     23  H    Isotropic =    30.4378   Anisotropy =     5.8127

     24  H    Isotropic =    30.4538   Anisotropy =     6.9505

     25  H    Isotropic =    30.5351   Anisotropy =     6.1476

     26  H    Isotropic =    30.6139   Anisotropy =     5.8879

     27  H    Isotropic =    30.5195   Anisotropy =     6.2887

     28  H    Isotropic =    30.6417   Anisotropy =     5.8688

     29  Rh   Isotropic =  -279.6031   Anisotropy =   307.6266

     30  C    Isotropic =    75.5114   Anisotropy =   125.9165

     31  C    Isotropic =    77.0665   Anisotropy =   117.8670

     32  C    Isotropic =    79.7050   Anisotropy =   121.4002

     33  C    Isotropic =    73.8667   Anisotropy =   121.4678

     34  C    Isotropic =   153.9938   Anisotropy =    24.8432

     35  H    Isotropic =    26.9909   Anisotropy =     6.3199

     36  H    Isotropic =    26.3605   Anisotropy =     4.6990

     37  C    Isotropic =   148.4911   Anisotropy =    29.0854

     38  C    Isotropic =   154.2806   Anisotropy =    24.2262

     39  H    Isotropic =    27.0364   Anisotropy =     6.4228

     40  C    Isotropic =   147.5568   Anisotropy =    30.2612

     41  H    Isotropic =    26.5230   Anisotropy =     3.9806

     42  H    Isotropic =    29.8962   Anisotropy =    11.4875

     43  H    Isotropic =    29.7299   Anisotropy =     9.3588

     44  H    Isotropic =    29.1003   Anisotropy =    12.4251

     45  H    Isotropic =    29.2435   Anisotropy =     7.3817

     46  H    Isotropic =    29.7315   Anisotropy =     9.6641

     47  H    Isotropic =    29.8623   Anisotropy =    11.2146

     48  H    Isotropic =    29.2556   Anisotropy =     7.5534

     49  H    Isotropic =    29.1685   Anisotropy =    12.5803

     50  C    Isotropic =   149.1023   Anisotropy =    43.2941

     51  H    Isotropic =    30.2052   Anisotropy =     4.9485

     52  H    Isotropic =    30.2627   Anisotropy =     5.9414

     53  C    Isotropic =   156.9007   Anisotropy =    27.4397

     54  H    Isotropic =    30.0441   Anisotropy =     5.3856

     55  H    Isotropic =    29.7276   Anisotropy =     5.5199

     56  C    Isotropic =   156.0772   Anisotropy =    25.3829

     57  H    Isotropic =    29.7154   Anisotropy =     5.3741

     58  H    Isotropic =    30.1763   Anisotropy =     5.5246

     59  C    Isotropic =   149.5694   Anisotropy =    42.0749

     60  H    Isotropic =    30.2213   Anisotropy =     5.7168

     61  H    Isotropic =    30.2274   Anisotropy =     4.3533

     62  C    Isotropic =   168.9330   Anisotropy =    29.2990

     63  H    Isotropic =    30.5063   Anisotropy =    12.1107

     64  H    Isotropic =    30.9841   Anisotropy =     8.4398

     65  H    Isotropic =    30.9875   Anisotropy =     7.6145

     66  C    Isotropic =   169.2880   Anisotropy =    29.3332

     67  H    Isotropic =    31.0146   Anisotropy =     8.5014

     68  H    Isotropic =    30.5675   Anisotropy =    12.0191

     69  H    Isotropic =    30.9916   Anisotropy =     8.2989

     70  C    Isotropic =   169.2457   Anisotropy =    29.3968

     71  H    Isotropic =    30.9886   Anisotropy =     8.3584

     72  H    Isotropic =    30.5691   Anisotropy =    12.0103

     73  H    Isotropic =    31.0155   Anisotropy =     8.4497

     74  C    Isotropic =   168.9011   Anisotropy =    29.3141

     75  H    Isotropic =    30.9595   Anisotropy =     8.3562

     76  H    Isotropic =    30.4971   Anisotropy =    12.1119

     77  H    Isotropic =    30.9547   Anisotropy =     7.5933

     78  C    Isotropic =   135.8511   Anisotropy =    63.2028

     79  H    Isotropic =    29.6797   Anisotropy =     6.3426

     80  H    Isotropic =    30.2116   Anisotropy =     8.3801

     81  H    Isotropic =    29.3826   Anisotropy =    10.5620

     82  C    Isotropic =   135.8117   Anisotropy =    62.6648

     83  H    Isotropic =    30.1931   Anisotropy =     8.3510

     84  H    Isotropic =    29.6083   Anisotropy =     6.5182

     85  H    Isotropic =    29.3530   Anisotropy =    10.4906

     86  N    Isotropic =   207.1523   Anisotropy =    39.1651

 The electronic state is 1-A.
 Alpha  occ. eigenvalues --  -77.23489 -77.23447 -14.43033 -10.33922 -10.29568
 Alpha  occ. eigenvalues --  -10.29527 -10.29267 -10.29249 -10.29248 -10.29189
 Alpha  occ. eigenvalues --  -10.29140 -10.29137 -10.29050 -10.28872 -10.27682
 Alpha  occ. eigenvalues --  -10.27665 -10.27449 -10.27439 -10.27425 -10.27417
 Alpha  occ. eigenvalues --  -10.27409 -10.27399 -10.25883 -10.25878 -10.25826
 Alpha  occ. eigenvalues --  -10.25816 -10.24064 -10.24055 -10.23978 -10.23974
 Alpha  occ. eigenvalues --   -6.69487  -6.69447  -4.85780  -4.85740  -4.85684
 Alpha  occ. eigenvalues --   -4.85641  -4.85396  -4.85357  -3.31387  -2.08287
 Alpha  occ. eigenvalues --   -2.07604  -2.04861  -1.03948  -0.94613  -0.91744
 Alpha  occ. eigenvalues --   -0.91263  -0.89917  -0.89879  -0.89331  -0.88181
 Alpha  occ. eigenvalues --   -0.86868  -0.84794  -0.82514  -0.82416  -0.82411
 Alpha  occ. eigenvalues --   -0.81286  -0.80507  -0.78012  -0.76084  -0.75855
 Alpha  occ. eigenvalues --   -0.73745  -0.73476  -0.72061  -0.70717  -0.68236
 Alpha  occ. eigenvalues --   -0.68130  -0.67961  -0.67948  -0.66027  -0.65567
 Alpha  occ. eigenvalues --   -0.64603  -0.62641  -0.60303  -0.59784  -0.59022
 Alpha  occ. eigenvalues --   -0.58715  -0.57743  -0.57526  -0.57066  -0.56966
 Alpha  occ. eigenvalues --   -0.56379  -0.56301  -0.54329  -0.53814  -0.53277
 Alpha  occ. eigenvalues --   -0.53201  -0.52937  -0.52781  -0.52688  -0.52537
 Alpha  occ. eigenvalues --   -0.52296  -0.52108  -0.51968  -0.51103  -0.50421
 Alpha  occ. eigenvalues --   -0.50350  -0.49745  -0.49582  -0.49317  -0.48422
 Alpha  occ. eigenvalues --   -0.48358  -0.47839  -0.47315  -0.47185  -0.46915
 Alpha  occ. eigenvalues --   -0.46616  -0.46195  -0.45821  -0.45699  -0.45657
 Alpha  occ. eigenvalues --   -0.45570  -0.44910  -0.44389  -0.43870  -0.43681
 Alpha  occ. eigenvalues --   -0.43480  -0.43349  -0.43035  -0.42914  -0.42363
 Alpha  occ. eigenvalues --   -0.42271  -0.42201  -0.42141  -0.42121  -0.41618
 Alpha  occ. eigenvalues --   -0.41554  -0.41333  -0.40407  -0.37086  -0.36473
 Alpha  occ. eigenvalues --   -0.34914  -0.34466  -0.33669  -0.33182  -0.30739
 Alpha virt. eigenvalues --   -0.16262  -0.13239  -0.09660  -0.08856  -0.08127
 Alpha virt. eigenvalues --   -0.07978  -0.07808  -0.06826  -0.06397  -0.05926
 Alpha virt. eigenvalues --   -0.05661  -0.05400  -0.05249  -0.04843  -0.04175

 Mulliken charges:
               1
     1  P    0.376637
     2  P    0.374511
     3  C   -0.393104
     4  C   -0.285888
     5  C   -0.202623
     6  C   -0.261917
     7  C   -0.218049
     8  C   -0.267971
     9  C   -0.206513
    10  C   -0.260951
    11  C   -0.218566
    12  H    0.173867
    13  H    0.123065
    14  H    0.127591
    15  H    0.114475
    16  H    0.119206
    17  H    0.126759
    18  H    0.127126
    19  H    0.117590
    20  H    0.115598
    21  H    0.119772
    22  H    0.123976
    23  H    0.114772
    24  H    0.119524
    25  H    0.129364
    26  H    0.128828
    27  H    0.115757
    28  H    0.117504
    29  Rh  -0.527106
    30  C   -0.026690
    31  C   -0.096716
    32  C   -0.026639
    33  C   -0.113656
    34  C   -0.352166
    35  H    0.178862
    36  H    0.184647
    37  C   -0.223096
    38  C   -0.347921
    39  H    0.177416
    40  C   -0.213905
    41  H    0.188984
    42  H    0.167794
    43  H    0.169477
    44  H    0.172637
    45  H    0.129132
    46  H    0.167908
    47  H    0.168475
    48  H    0.128813
    49  H    0.170610
    50  C   -0.270045
    51  H    0.160125
    52  H    0.143742
    53  C   -0.273614
    54  H    0.174172
    55  H    0.152547
    56  C   -0.253642
    57  H    0.155680
    58  H    0.152584
    59  C   -0.296213
    60  H    0.150884
    61  H    0.162091
    62  C   -0.346483
    63  H    0.144095
    64  H    0.115675
    65  H    0.111575
    66  C   -0.349407
    67  H    0.117492
    68  H    0.143003
    69  H    0.115319
    70  C   -0.349334
    71  H    0.115889
    72  H    0.142879
    73  H    0.117015
    74  C   -0.345494
    75  H    0.115077
    76  H    0.144046
    77  H    0.112131
    78  C   -0.289814
    79  H    0.132494
    80  H    0.119591
    81  H    0.150818
    82  C   -0.291089
    83  H    0.119332
    84  H    0.131458
    85  H    0.150200
    86  N   -0.111980
 Sum of Mulliken charges =   1.00000

 Dipole moment (field-independent basis, Debye):
    X=              0.0534    Y=              0.8962    Z=             -0.8466  Tot=              1.2340
 Quadrupole moment (field-independent basis, Debye-Ang):
   XX=           -183.7445   YY=           -190.6868   ZZ=           -204.1701
   XY=             -0.1504   XZ=             -0.1591   YZ=              2.5058

 Summary of Natural Population Analysis:

                                       Natural Population
                Natural  -----------------------------------------------
    Atom  No    Charge         Core      Valence    Rydberg      Total
 -----------------------------------------------------------------------
      P    1    1.11114      9.99663     3.84161    0.05062    13.88886
      P    2    1.11577      9.99661     3.83650    0.05112    13.88423
      C    3   -0.55016      1.99933     4.52479    0.02603     6.55016
      C    4   -0.38273      1.99942     4.37242    0.01089     6.38273
      C    5   -0.37831      1.99945     4.36884    0.01002     6.37831
      C    6   -0.39240      1.99941     4.38134    0.01164     6.39240
      C    7   -0.37655      1.99945     4.36697    0.01013     6.37655
      C    8   -0.38338      1.99941     4.37304    0.01093     6.38338
      C    9   -0.37795      1.99945     4.36848    0.01002     6.37795
      C   10   -0.39260      1.99941     4.38146    0.01173     6.39260
      C   11   -0.37699      1.99945     4.36726    0.01029     6.37699
      H   12    0.20621      0.00000     0.78821    0.00558     0.79379
      H   13    0.19160      0.00000     0.80632    0.00207     0.80840
      H   14    0.20115      0.00000     0.79672    0.00213     0.79885
      H   15    0.19566      0.00000     0.80274    0.00160     0.80434
      H   16    0.19620      0.00000     0.80220    0.00159     0.80380
      H   17    0.19341      0.00000     0.80444    0.00215     0.80659
      H   18    0.20009      0.00000     0.79762    0.00228     0.79991
      H   19    0.19429      0.00000     0.80410    0.00161     0.80571
      H   20    0.19514      0.00000     0.80309    0.00176     0.80486
      H   21    0.20230      0.00000     0.79568    0.00203     0.79770
      H   22    0.19189      0.00000     0.80576    0.00235     0.80811
      H   23    0.19529      0.00000     0.80311    0.00160     0.80471
      H   24    0.19628      0.00000     0.80213    0.00159     0.80372
      H   25    0.20073      0.00000     0.79700    0.00227     0.79927
      H   26    0.19381      0.00000     0.80398    0.00221     0.80619
      H   27    0.19533      0.00000     0.80291    0.00176     0.80467
      H   28    0.19375      0.00000     0.80449    0.00176     0.80625
     Rh   29   -0.42098     35.98629     9.40924    0.02545    45.42098
      C   30   -0.16647      1.99907     4.14757    0.01984     6.16647
      C   31   -0.17289      1.99907     4.15319    0.02062     6.17289
      C   32   -0.18607      1.99907     4.16687    0.02013     6.18607
      C   33   -0.15563      1.99907     4.13610    0.02046     6.15563
      C   34   -0.42482      1.99936     4.41328    0.01218     6.42482
      H   35    0.21957      0.00000     0.77846    0.00197     0.78043
      H   36    0.22500      0.00000     0.77286    0.00214     0.77500
      C   37   -0.41915      1.99935     4.40686    0.01294     6.41915
      C   38   -0.42348      1.99936     4.41206    0.01206     6.42348
      H   39    0.22394      0.00000     0.77392    0.00214     0.77606
      C   40   -0.41818      1.99935     4.40596    0.01286     6.41818
      H   41    0.21899      0.00000     0.77879    0.00222     0.78101
      H   42    0.22810      0.00000     0.77048    0.00142     0.77190
      H   43    0.21470      0.00000     0.78336    0.00194     0.78530
      H   44    0.23385      0.00000     0.76430    0.00185     0.76615
      H   45    0.21527      0.00000     0.78310    0.00163     0.78473
      H   46    0.21444      0.00000     0.78360    0.00195     0.78556
      H   47    0.22809      0.00000     0.77047    0.00144     0.77191
      H   48    0.21524      0.00000     0.78320    0.00156     0.78476
      H   49    0.23316      0.00000     0.76501    0.00183     0.76684
      C   50   -0.67184      1.99937     4.65825    0.01423     6.67184
      H   51    0.23614      0.00000     0.76204    0.00182     0.76386
      H   52    0.22697      0.00000     0.77047    0.00256     0.77303
      C   53   -0.67673      1.99936     4.66290    0.01446     6.67673
      H   54    0.23612      0.00000     0.76135    0.00254     0.76388
      H   55    0.22488      0.00000     0.77210    0.00302     0.77512
      C   56   -0.67384      1.99936     4.65979    0.01469     6.67384
      H   57    0.22536      0.00000     0.77171    0.00293     0.77464
      H   58    0.23291      0.00000     0.76474    0.00235     0.76709
      C   59   -0.67609      1.99936     4.66274    0.01399     6.67609
      H   60    0.23013      0.00000     0.76772    0.00215     0.76987
      H   61    0.23539      0.00000     0.76278    0.00183     0.76461
      C   62   -0.58810      1.99947     4.58271    0.00592     6.58810
      H   63    0.21708      0.00000     0.78186    0.00105     0.78292
      H   64    0.20017      0.00000     0.79846    0.00137     0.79983
      H   65    0.19817      0.00000     0.80045    0.00138     0.80183
      C   66   -0.58847      1.99947     4.58302    0.00598     6.58847
      H   67    0.20052      0.00000     0.79813    0.00135     0.79948
      H   68    0.21709      0.00000     0.78185    0.00106     0.78291
      H   69    0.20038      0.00000     0.79827    0.00135     0.79962
      C   70   -0.58845      1.99947     4.58302    0.00597     6.58845
      H   71    0.20047      0.00000     0.79818    0.00135     0.79953
      H   72    0.21703      0.00000     0.78191    0.00106     0.78297
      H   73    0.20040      0.00000     0.79825    0.00135     0.79960
      C   74   -0.58819      1.99947     4.58279    0.00593     6.58819
      H   75    0.20008      0.00000     0.79856    0.00136     0.79992
      H   76    0.21717      0.00000     0.78178    0.00105     0.78283
      H   77    0.19830      0.00000     0.80032    0.00138     0.80170
      C   78   -0.40272      1.99936     4.39210    0.01127     6.40272
      H   79    0.19457      0.00000     0.80336    0.00207     0.80543
      H   80    0.16604      0.00000     0.83005    0.00390     0.83396
      H   81    0.21365      0.00000     0.78487    0.00148     0.78635
      C   82   -0.40244      1.99936     4.39180    0.01129     6.40244
      H   83    0.16572      0.00000     0.83034    0.00393     0.83428
      H   84    0.19415      0.00000     0.80375    0.00210     0.80585
      H   85    0.21375      0.00000     0.78476    0.00149     0.78625
      N   86   -0.44746      1.99954     5.42363    0.02429     7.44746
 =======================================================================
   * Total *    1.00000    111.96161   185.43267    0.60572   298.00000

 Normal termination of Gaussian 16 at Wed Jan 22 21:26:50 2025.
