 Gaussian 16, Revision B.01,
 Gaussian 16:  ES64L-G16RevB.01 20-Dec-2017

 ------------------------------------------
 # nmr=giao b3lyp/genecp pop=nbo scfcyc=200
 ------------------------------------------

 ---------
 MS-74_SPE
 ---------
 Symbolic Z-matrix:
 Charge =  1 Multiplicity = 1

                         Standard orientation:
 ---------------------------------------------------------------------
 Center     Atomic      Atomic             Coordinates (Angstroms)
 Number     Number       Type             X           Y           Z
 ---------------------------------------------------------------------
      1         15           0        0.728621   -1.702920   -0.382920
      2          7           0        3.136931   -0.243200   -0.470240
      3          6           0        1.699321   -0.121600   -0.652080
      4          1           0        1.531471    0.102670   -1.712880
      5          6           0        1.744621   -2.719430   -1.648320
      6          1           0        1.495252   -3.779040   -1.578680
      7          1           0        1.491911   -2.377280   -2.653070
      8          7           0        3.171771   -2.534210   -1.395970
      9          7           0        3.070791   -2.214320    1.024500
     10          6           0        1.625781   -2.341050    1.161720
     11          1           0        1.282581   -1.785610    2.029770
     12          1           0        1.358842   -3.388800    1.314400
     13          6           0        3.648761   -1.148880   -1.527010
     14          1           0        3.368561   -0.755130   -2.504790
     15          1           0        4.737471   -1.165809   -1.464540
     16          6           0        3.581932   -3.035750   -0.076750
     17          1           0        3.239932   -4.064030    0.047110
     18          1           0        4.671972   -3.032199   -0.035990
     19          6           0        3.499351   -0.817000    0.844620
     20          1           0        3.069211   -0.200190    1.631410
     21          1           0        4.585681   -0.782679    0.932800
     22         45           0       -1.325309   -0.488091   -0.106450
     23          6           0       -3.048729    0.598479    0.866310
     24          6           0       -2.985560    0.965449   -0.466010
     25          6           0       -2.875359   -1.893181   -0.987580
     26          6           0       -2.673779   -2.234141    0.334450
     27          6           0       -4.045129   -0.380662    1.461210
     28          1           0       -2.572570    1.265769    1.575800
     29          1           0       -2.490710    1.903329   -0.692070
     30          6           0       -3.825499    0.409158   -1.589080
     31          6           0       -4.064829   -1.114502   -1.517260
     32          1           0       -2.305449   -2.441591   -1.729730
     33          6           0       -3.536939   -1.837922    1.506810
     34          1           0       -1.991198   -3.053561    0.535460
     35          1           0       -4.277369   -0.063532    2.478980
     36          1           0       -4.983189   -0.322802    0.909000
     37          1           0       -4.788120    0.934688   -1.621750
     38          1           0       -3.325549    0.647498   -2.529550
     39          1           0       -4.942119   -1.333612   -0.908730
     40          1           0       -4.297109   -1.476562   -2.519870
     41          1           0       -2.950549   -1.984661    2.415920
     42          1           0       -4.387589   -2.525902    1.587140
     43          6           0        1.536420    3.138620    1.351270
     44          6           0        1.767150    3.302540   -0.137580
     45          1           0        0.790650    3.869010    1.684010
     46          1           0        2.457660    3.305550    1.909170
     47          1           0        1.748599    4.358200   -0.399510
     48          1           0        2.738460    2.887290   -0.438560
     49         15           0        0.458970    1.112200    0.090950
     50          7           0        0.652740    2.590610   -0.795460
     51          7           0        1.023900    1.766490    1.586880
     52          6           0        0.247480    1.646020    2.857950
     53          1           0       -0.687850    2.215429    2.748970
     54          6           0       -0.095539    0.203549    3.212070
     55          1           0        0.803881   -0.345990    3.495680
     56          1           0       -0.771009    0.192849    4.069190
     57          1           0       -0.594599   -0.320131    2.392180
     58          6           0        1.035700    2.261470    4.019900
     59          1           0        1.189580    3.333660    3.911850
     60          1           0        0.482910    2.105770    4.947290
     61          1           0        2.010150    1.778610    4.121810
     62          6           0        0.695990    2.613590   -2.280170
     63          1           0        1.599930    2.081990   -2.617270
     64          6           0        0.794870    4.053480   -2.795440
     65          1           0        1.741449    4.528850   -2.542370
     66          1           0        0.717230    4.051500   -3.883360
     67          1           0       -0.020261    4.661119   -2.396740
     68          6           0       -0.524100    1.938129   -2.901490
     69          1           0       -0.675630    0.917209   -2.543170
     70          1           0       -1.427990    2.509559   -2.683770
     71          1           0       -0.403910    1.897679   -3.984890
 ---------------------------------------------------------------------

 SCF Done:  E(RB3LYP) =  -1930.31368501     A.U. after   15 cycles

      1  P    Isotropic =   386.3540   Anisotropy =    90.2462

      2  N    Isotropic =   189.0880   Anisotropy =    59.5023

      3  C    Isotropic =    98.5825   Anisotropy =    79.1663

      4  H    Isotropic =    26.4698   Anisotropy =     7.3186

      5  C    Isotropic =   119.7741   Anisotropy =    33.9776

      6  H    Isotropic =    27.5116   Anisotropy =     5.5440

      7  H    Isotropic =    27.8058   Anisotropy =     4.7328

      8  N    Isotropic =   178.9663   Anisotropy =    43.1684

      9  N    Isotropic =   194.5675   Anisotropy =    43.6788

     10  C    Isotropic =   124.0496   Anisotropy =    47.0549

     11  H    Isotropic =    26.9501   Anisotropy =     6.1848

     12  H    Isotropic =    27.5202   Anisotropy =     3.8662

     13  C    Isotropic =   104.3190   Anisotropy =    26.5235

     14  H    Isotropic =    27.2512   Anisotropy =     4.8733

     15  H    Isotropic =    27.4728   Anisotropy =     7.7306

     16  C    Isotropic =   107.1218   Anisotropy =    20.9904

     17  H    Isotropic =    27.3389   Anisotropy =     6.7239

     18  H    Isotropic =    27.4326   Anisotropy =     8.2371

     19  C    Isotropic =   112.3738   Anisotropy =    22.5410

     20  H    Isotropic =    26.6456   Anisotropy =     4.1123

     21  H    Isotropic =    27.5147   Anisotropy =     6.9856

     22  Rh   Isotropic =  -348.9010   Anisotropy =   384.1614

     23  C    Isotropic =    81.5569   Anisotropy =   118.4960

     24  C    Isotropic =    77.7900   Anisotropy =   115.7733

     25  C    Isotropic =    78.9204   Anisotropy =   125.0913

     26  C    Isotropic =    79.6503   Anisotropy =   114.2110

     27  C    Isotropic =   153.8491   Anisotropy =    25.7467

     28  H    Isotropic =    27.1648   Anisotropy =     5.4726

     29  H    Isotropic =    26.7315   Anisotropy =     3.2387

     30  C    Isotropic =   148.7402   Anisotropy =    28.4693

     31  C    Isotropic =   154.4140   Anisotropy =    25.6442

     32  H    Isotropic =    27.0802   Anisotropy =     8.1476

     33  C    Isotropic =   146.7958   Anisotropy =    29.4333

     34  H    Isotropic =    26.7109   Anisotropy =     5.8656

     35  H    Isotropic =    29.9169   Anisotropy =    10.8395

     36  H    Isotropic =    29.8996   Anisotropy =     9.3689

     37  H    Isotropic =    29.2926   Anisotropy =    12.2906

     38  H    Isotropic =    29.2299   Anisotropy =     7.1119

     39  H    Isotropic =    29.9255   Anisotropy =     9.2662

     40  H    Isotropic =    29.9568   Anisotropy =    11.7435

     41  H    Isotropic =    29.2283   Anisotropy =     7.1044

     42  H    Isotropic =    29.2240   Anisotropy =    12.6104

     43  C    Isotropic =   128.1378   Anisotropy =    42.7460

     44  C    Isotropic =   130.4412   Anisotropy =    45.9534

     45  H    Isotropic =    29.0924   Anisotropy =     9.1150

     46  H    Isotropic =    28.4507   Anisotropy =     8.9336

     47  H    Isotropic =    28.4463   Anisotropy =     8.6997

     48  H    Isotropic =    29.0201   Anisotropy =     7.8773

     49  P    Isotropic =   203.8670   Anisotropy =   102.4730

     50  N    Isotropic =   156.4886   Anisotropy =    53.4954

     51  N    Isotropic =   172.5044   Anisotropy =    66.4566

     52  C    Isotropic =   124.9252   Anisotropy =    47.9760

     53  H    Isotropic =    28.8760   Anisotropy =     3.9791

     54  C    Isotropic =   155.3103   Anisotropy =    36.5631

     55  H    Isotropic =    30.1882   Anisotropy =     5.0905

     56  H    Isotropic =    30.3113   Anisotropy =     8.5946

     57  H    Isotropic =    27.8391   Anisotropy =    12.0633

     58  C    Isotropic =   159.8085   Anisotropy =    38.0718

     59  H    Isotropic =    30.2858   Anisotropy =     9.2512

     60  H    Isotropic =    30.6825   Anisotropy =    10.5969

     61  H    Isotropic =    30.8104   Anisotropy =     7.8628

     62  C    Isotropic =   129.1947   Anisotropy =    42.2610

     63  H    Isotropic =    28.8365   Anisotropy =     4.6952

     64  C    Isotropic =   160.8418   Anisotropy =    37.0063

     65  H    Isotropic =    30.2662   Anisotropy =     9.6452

     66  H    Isotropic =    30.5888   Anisotropy =    10.5591

     67  H    Isotropic =    30.8101   Anisotropy =     8.0044

     68  C    Isotropic =   157.8608   Anisotropy =    31.8692

     69  H    Isotropic =    29.0958   Anisotropy =     9.3766

     70  H    Isotropic =    30.5022   Anisotropy =     5.6039

     71  H    Isotropic =    30.3516   Anisotropy =     9.4404

 The electronic state is 1-A.
 Alpha  occ. eigenvalues --  -77.27191 -77.22098 -14.43729 -14.43485 -14.43186
 Alpha  occ. eigenvalues --  -14.43183 -14.42742 -10.33386 -10.32990 -10.32869
 Alpha  occ. eigenvalues --  -10.32849 -10.32578 -10.32154 -10.31975 -10.31829
 Alpha  occ. eigenvalues --  -10.30931 -10.30788 -10.30099 -10.29985 -10.29932
 Alpha  occ. eigenvalues --  -10.29864 -10.28338 -10.28230 -10.28102 -10.28067
 Alpha  occ. eigenvalues --  -10.26663 -10.26570 -10.25926 -10.25819  -6.72629
 Alpha  occ. eigenvalues --   -6.68363  -4.88980  -4.88865  -4.88537  -4.84577
 Alpha  occ. eigenvalues --   -4.84529  -4.84317  -3.32825  -2.09701  -2.09082
 Alpha  occ. eigenvalues --   -2.06265  -1.10356  -1.06242  -1.01195  -1.00940
 Alpha  occ. eigenvalues --   -1.00379  -0.95360  -0.90319  -0.90071  -0.88988
 Alpha  occ. eigenvalues --   -0.88831  -0.86723  -0.84664  -0.82221  -0.81623
 Alpha  occ. eigenvalues --   -0.81208  -0.79495  -0.79163  -0.78595  -0.76653
 Alpha  occ. eigenvalues --   -0.75251  -0.72677  -0.72344  -0.71929  -0.71409
 Alpha  occ. eigenvalues --   -0.67778  -0.67099  -0.66768  -0.64878  -0.63321
 Alpha  occ. eigenvalues --   -0.61705  -0.60972  -0.60774  -0.60328  -0.59996
 Alpha  occ. eigenvalues --   -0.59614  -0.58452  -0.58050  -0.57681  -0.57259
 Alpha  occ. eigenvalues --   -0.56676  -0.56365  -0.55798  -0.55076  -0.54348
 Alpha  occ. eigenvalues --   -0.53828  -0.53572  -0.53430  -0.52327  -0.50850
 Alpha  occ. eigenvalues --   -0.50698  -0.50536  -0.49942  -0.49875  -0.49478
 Alpha  occ. eigenvalues --   -0.49182  -0.49073  -0.48825  -0.48727  -0.48582
 Alpha  occ. eigenvalues --   -0.48316  -0.48204  -0.47926  -0.47604  -0.46957
 Alpha  occ. eigenvalues --   -0.46818  -0.46583  -0.46266  -0.46049  -0.45529
 Alpha  occ. eigenvalues --   -0.45069  -0.44738  -0.44280  -0.44166  -0.43847
 Alpha  occ. eigenvalues --   -0.42802  -0.40267  -0.38933  -0.36739  -0.36294
 Alpha  occ. eigenvalues --   -0.36037  -0.35331  -0.35224  -0.34631  -0.32274
 Alpha  occ. eigenvalues --   -0.31868  -0.31228
 Alpha virt. eigenvalues --   -0.17061  -0.16233  -0.10464  -0.09842  -0.09216
 Alpha virt. eigenvalues --   -0.08328  -0.07687  -0.07383  -0.07053  -0.05647
 Alpha virt. eigenvalues --   -0.05402  -0.05217  -0.05096  -0.04718  -0.04288

 Mulliken charges:
               1
     1  P    0.384915
     2  N    0.033251
     3  C   -0.517151
     4  H    0.208872
     5  C   -0.321362
     6  H    0.185882
     7  H    0.183828
     8  N   -0.039315
     9  N   -0.028635
    10  C   -0.328961
    11  H    0.169893
    12  H    0.177465
    13  C   -0.300259
    14  H    0.174736
    15  H    0.192168
    16  C   -0.314262
    17  H    0.178056
    18  H    0.191248
    19  C   -0.285870
    20  H    0.184589
    21  H    0.187742
    22  Rh  -0.696199
    23  C   -0.020275
    24  C   -0.052665
    25  C   -0.006806
    26  C   -0.072856
    27  C   -0.360699
    28  H    0.189953
    29  H    0.203312
    30  C   -0.258084
    31  C   -0.342809
    32  H    0.175702
    33  C   -0.226662
    34  H    0.178942
    35  H    0.169953
    36  H    0.169709
    37  H    0.173702
    38  H    0.146656
    39  H    0.168376
    40  H    0.173892
    41  H    0.138827
    42  H    0.175037
    43  C   -0.190001
    44  C   -0.195632
    45  H    0.144381
    46  H    0.158951
    47  H    0.163110
    48  H    0.156826
    49  P    0.618790
    50  N   -0.254561
    51  N   -0.282475
    52  C   -0.011502
    53  H    0.145019
    54  C   -0.461046
    55  H    0.147679
    56  H    0.149984
    57  H    0.174210
    58  C   -0.382462
    59  H    0.148600
    60  H    0.143895
    61  H    0.140700
    62  C   -0.085433
    63  H    0.144222
    64  C   -0.398678
    65  H    0.148139
    66  H    0.140731
    67  H    0.140893
    68  C   -0.399601
    69  H    0.160845
    70  H    0.137002
    71  H    0.153575
 Sum of Mulliken charges =   1.00000

 Dipole moment (field-independent basis, Debye):
    X=             -0.8848    Y=             -0.1193    Z=             -0.3053  Tot=              0.9435
 Quadrupole moment (field-independent basis, Debye-Ang):
   XX=           -173.7892   YY=           -180.3873   ZZ=           -188.1384
   XY=              4.4340   XZ=             -1.6046   YZ=              1.0160

 Summary of Natural Population Analysis:

                                       Natural Population
                Natural  -----------------------------------------------
    Atom  No    Charge         Core      Valence    Rydberg      Total
 -----------------------------------------------------------------------
      P    1    0.89686      9.99690     4.06519    0.04105    14.10314
      N    2   -0.44765      1.99954     5.42391    0.02421     7.44765
      C    3   -0.63752      1.99932     4.60654    0.03166     6.63752
      H    4    0.23189      0.00000     0.76434    0.00377     0.76811
      C    5   -0.45165      1.99934     4.43508    0.01723     6.45165
      H    6    0.22340      0.00000     0.77447    0.00213     0.77660
      H    7    0.22154      0.00000     0.77630    0.00216     0.77846
      N    8   -0.41572      1.99960     5.39733    0.01879     7.41572
      N    9   -0.41990      1.99959     5.40081    0.01950     7.41990
      C   10   -0.46959      1.99935     4.45301    0.01724     6.46959
      H   11    0.22705      0.00000     0.77073    0.00223     0.77295
      H   12    0.22260      0.00000     0.77536    0.00204     0.77740
      C   13   -0.07475      1.99932     4.05587    0.01956     6.07475
      H   14    0.19442      0.00000     0.80307    0.00251     0.80558
      H   15    0.21020      0.00000     0.78762    0.00218     0.78980
      C   16   -0.07762      1.99934     4.05887    0.01941     6.07762
      H   17    0.19775      0.00000     0.79947    0.00278     0.80225
      H   18    0.20871      0.00000     0.78908    0.00221     0.79129
      C   19   -0.08212      1.99932     4.06395    0.01885     6.08212
      H   20    0.20958      0.00000     0.78765    0.00277     0.79042
      H   21    0.20720      0.00000     0.79074    0.00205     0.79280
     Rh   22   -0.44537     35.98457     9.42894    0.03185    45.44537
      C   23   -0.16134      1.99903     4.14255    0.01976     6.16134
      C   24   -0.15321      1.99904     4.13412    0.02005     6.15321
      C   25   -0.15990      1.99905     4.14082    0.02003     6.15990
      C   26   -0.15512      1.99906     4.13538    0.02068     6.15512
      C   27   -0.42480      1.99936     4.41353    0.01191     6.42480
      H   28    0.22476      0.00000     0.77293    0.00232     0.77524
      H   29    0.23224      0.00000     0.76545    0.00231     0.76776
      C   30   -0.42053      1.99935     4.40831    0.01287     6.42053
      C   31   -0.42444      1.99937     4.41319    0.01189     6.42444
      H   32    0.23135      0.00000     0.76705    0.00160     0.76865
      C   33   -0.42090      1.99936     4.40913    0.01241     6.42090
      H   34    0.22591      0.00000     0.77210    0.00198     0.77409
      H   35    0.22952      0.00000     0.76899    0.00148     0.77048
      H   36    0.21665      0.00000     0.78134    0.00201     0.78335
      H   37    0.23520      0.00000     0.76283    0.00197     0.76480
      H   38    0.21750      0.00000     0.78072    0.00178     0.78250
      H   39    0.21627      0.00000     0.78172    0.00201     0.78373
      H   40    0.23085      0.00000     0.76766    0.00149     0.76915
      H   41    0.21911      0.00000     0.77938    0.00150     0.78089
      H   42    0.23576      0.00000     0.76230    0.00194     0.76424
      C   43   -0.21451      1.99934     4.19997    0.01520     6.21451
      C   44   -0.24037      1.99933     4.22399    0.01705     6.24037
      H   45    0.18547      0.00000     0.81202    0.00251     0.81453
      H   46    0.21479      0.00000     0.78349    0.00172     0.78521
      H   47    0.22264      0.00000     0.77551    0.00185     0.77736
      H   48    0.18664      0.00000     0.80990    0.00346     0.81336
      P   49    1.51059      9.99615     3.42156    0.07170    13.48941
      N   50   -0.70943      1.99954     5.68796    0.02193     7.70943
      N   51   -0.73095      1.99952     5.70910    0.02233     7.73095
      C   52   -0.02819      1.99937     4.01309    0.01573     6.02819
      H   53    0.17032      0.00000     0.82599    0.00370     0.82968
      C   54   -0.59307      1.99939     4.58505    0.00862     6.59307
      H   55    0.20389      0.00000     0.79419    0.00192     0.79611
      H   56    0.22311      0.00000     0.77564    0.00125     0.77689
      H   57    0.21302      0.00000     0.78452    0.00246     0.78698
      C   58   -0.59967      1.99942     4.59175    0.00850     6.59967
      H   59    0.21270      0.00000     0.78610    0.00120     0.78730
      H   60    0.22165      0.00000     0.77720    0.00114     0.77835
      H   61    0.20903      0.00000     0.78945    0.00152     0.79097
      C   62   -0.03845      1.99938     4.02302    0.01605     6.03845
      H   63    0.16575      0.00000     0.83022    0.00403     0.83425
      C   64   -0.59878      1.99942     4.59091    0.00845     6.59878
      H   65    0.21079      0.00000     0.78808    0.00113     0.78921
      H   66    0.22133      0.00000     0.77749    0.00118     0.77867
      H   67    0.21229      0.00000     0.78612    0.00159     0.78771
      C   68   -0.59484      1.99941     4.58683    0.00860     6.59484
      H   69    0.20874      0.00000     0.78935    0.00191     0.79126
      H   70    0.20906      0.00000     0.78919    0.00176     0.79094
      H   71    0.22225      0.00000     0.77660    0.00115     0.77775
 =======================================================================
   * Total *    1.00000    109.96008   171.35212    0.68781   282.00000

 Normal termination of Gaussian 16 at Wed Jan 22 21:01:57 2025.
