 Gaussian 16, Revision B.01,
 Gaussian 16:  ES64L-G16RevB.01 20-Dec-2017

 ------------------------------------------
 # nmr=giao b3lyp/genecp pop=nbo scfcyc=200
 ------------------------------------------

 ---------
 MS-78_SPE
 ---------
 Symbolic Z-matrix:
 Charge =  1 Multiplicity = 1

                         Standard orientation:
 ---------------------------------------------------------------------
 Center     Atomic      Atomic             Coordinates (Angstroms)
 Number     Number       Type             X           Y           Z
 ---------------------------------------------------------------------
      1         15           0       -0.068490    1.324470    0.165061
      2         15           0       -0.203920   -1.330680   -0.133459
      3          8           0       -0.723590    1.848700    1.563531
      4          8           0        0.099560    2.636350   -0.789889
      5          8           0       -0.867990   -2.070350    1.162471
      6          8           0       -0.208650   -2.415540   -1.350309
      7          6           0       -1.403440    0.112500   -0.470459
      8          6           0        0.091790    2.367650    2.651441
      9          6           0       -0.813950    2.625350    3.833741
     10          6           0       -0.821650    3.758330   -0.925759
     11          6           0       -0.058660    4.923460   -1.514689
     12          6           0       -0.064600   -2.890550    2.059321
     13          6           0       -0.930720   -3.291930    3.230981
     14          6           0       -1.304480   -3.290710   -1.752319
     15          6           0       -0.749770   -4.326080   -2.703859
     16          1           0       -1.322520    0.218850   -1.572849
     17          1           0        0.581840    3.287800    2.322091
     18          1           0        0.860430    1.629580    2.893001
     19          1           0       -0.225070    3.010030    4.668911
     20          1           0       -1.306780    1.706310    4.151371
     21          1           0       -1.578840    3.362210    3.586991
     22          1           0       -1.231790    4.004480    0.054761
     23          1           0       -1.636670    3.450540   -1.581189
     24          1           0       -0.733960    5.771320   -1.646739
     25          1           0        0.754200    5.234140   -0.857199
     26          1           0        0.357990    4.664590   -2.488549
     27          1           0        0.799590   -2.305920    2.383871
     28          1           0        0.291630   -3.767410    1.512621
     29          1           0       -0.348960   -3.905140    3.922211
     30          1           0       -1.290350   -2.413310    3.766941
     31          1           0       -1.791170   -3.874360    2.900321
     32          1           0       -2.071320   -2.681670   -2.232979
     33          1           0       -1.732620   -3.754600   -0.862569
     34          1           0       -1.555150   -4.986130   -3.032469
     35          1           0       -0.315000   -3.853520   -3.585179
     36          1           0        0.014430   -4.935250   -2.219769
     37         45           0        1.710840   -0.097660    0.030591
     38          6           0        3.333790    1.397640   -0.708509
     39          6           0        3.456390    1.258620    0.651701
     40          6           0        3.450320   -1.644910    0.105461
     41          6           0        3.042140   -1.504470   -1.198259
     42          6           0        4.207740    0.727631   -1.750389
     43          1           0        2.714030    2.212140   -1.065839
     44          1           0        2.969910    2.008180    1.268101
     45          6           0        4.410690    0.358761    1.397031
     46          6           0        4.677610   -1.009119    0.729761
     47          1           0        3.006030   -2.458130    0.670261
     48          6           0        3.661810   -0.625979   -2.255389
     49          1           0        2.326310   -2.225650   -1.576929
     50          1           0        4.294200    1.399701   -2.605709
     51          1           0        5.217200    0.608181   -1.358769
     52          1           0        5.362220    0.881631    1.554011
     53          1           0        3.999120    0.193301    2.395591
     54          1           0        5.464090   -0.918549   -0.018539
     55          1           0        5.066640   -1.687929    1.490481
     56          1           0        2.901320   -0.443020   -3.017009
     57          1           0        4.463900   -1.178269   -2.761019
     58          6           0       -3.459060    1.404870   -0.165919
     59          1           0       -4.321350    1.407430    0.502091
     60          1           0       -2.824770    2.217710    0.187641
     61          6           0       -3.535270   -1.064930   -0.206379
     62          1           0       -3.765980   -1.174610   -1.279109
     63          1           0       -2.930130   -1.921000    0.083561
     64          7           0       -2.737710    0.142020    0.062531
     65          6           0       -4.835730   -1.137160    0.595271
     66          1           0       -5.534560   -0.364190    0.267691
     67          1           0       -4.609400   -0.937220    1.645931
     68          6           0       -5.508990   -2.503470    0.452481
     69          1           0       -6.444690   -2.537000    1.012111
     70          1           0       -5.743640   -2.726920   -0.591429
     71          1           0       -4.869710   -3.305200    0.830711
     72          6           0       -3.937000    1.689880   -1.597889
     73          1           0       -4.567080    0.868090   -1.947789
     74          1           0       -3.084840    1.731140   -2.285019
     75          6           0       -4.729980    2.995560   -1.682539
     76          1           0       -4.134390    3.852970   -1.357939
     77          1           0       -5.062410    3.191790   -2.702899
     78          1           0       -5.618170    2.957600   -1.047529
 ---------------------------------------------------------------------

 SCF Done:  E(RB3LYP) =  -2054.08224367     A.U. after   16 cycles

      1  P    Isotropic =   172.4100   Anisotropy =   171.0644

      2  P    Isotropic =   167.8231   Anisotropy =   173.8212

      3  O    Isotropic =   200.0341   Anisotropy =    94.5713

      4  O    Isotropic =   197.8197   Anisotropy =    69.1015

      5  O    Isotropic =   196.4616   Anisotropy =   101.5987

      6  O    Isotropic =   195.3524   Anisotropy =    73.2090

      7  C    Isotropic =    71.2968   Anisotropy =    89.0591

      8  C    Isotropic =   113.1577   Anisotropy =    76.5278

      9  C    Isotropic =   167.4822   Anisotropy =    27.4921

     10  C    Isotropic =   116.3140   Anisotropy =    74.7563

     11  C    Isotropic =   167.3582   Anisotropy =    28.3738

     12  C    Isotropic =   113.1238   Anisotropy =    76.7969

     13  C    Isotropic =   167.4022   Anisotropy =    27.4641

     14  C    Isotropic =   115.4757   Anisotropy =    70.1634

     15  C    Isotropic =   167.4391   Anisotropy =    28.3541

     16  H    Isotropic =    26.6833   Anisotropy =     7.4942

     17  H    Isotropic =    27.9295   Anisotropy =     6.7548

     18  H    Isotropic =    27.8941   Anisotropy =     5.0671

     19  H    Isotropic =    30.6129   Anisotropy =    11.3673

     20  H    Isotropic =    30.2687   Anisotropy =     6.6500

     21  H    Isotropic =    30.3092   Anisotropy =     8.0426

     22  H    Isotropic =    27.7775   Anisotropy =     5.9572

     23  H    Isotropic =    28.1550   Anisotropy =     7.5041

     24  H    Isotropic =    30.6244   Anisotropy =    11.2786

     25  H    Isotropic =    30.6068   Anisotropy =     7.4121

     26  H    Isotropic =    30.3687   Anisotropy =     7.5364

     27  H    Isotropic =    27.9165   Anisotropy =     5.3822

     28  H    Isotropic =    28.0083   Anisotropy =     6.8029

     29  H    Isotropic =    30.6189   Anisotropy =    11.3620

     30  H    Isotropic =    30.3044   Anisotropy =     6.4003

     31  H    Isotropic =    30.3246   Anisotropy =     8.0020

     32  H    Isotropic =    27.9439   Anisotropy =     4.9265

     33  H    Isotropic =    27.8818   Anisotropy =     5.9659

     34  H    Isotropic =    30.6169   Anisotropy =    11.2527

     35  H    Isotropic =    30.3791   Anisotropy =     7.5872

     36  H    Isotropic =    30.5587   Anisotropy =     7.5747

     37  Rh   Isotropic =  -266.9112   Anisotropy =   317.3940

     38  C    Isotropic =    64.2607   Anisotropy =   145.0938

     39  C    Isotropic =    74.9683   Anisotropy =   120.0129

     40  C    Isotropic =    75.4697   Anisotropy =   126.0574

     41  C    Isotropic =    63.9241   Anisotropy =   139.5938

     42  C    Isotropic =   153.5685   Anisotropy =    24.9010

     43  H    Isotropic =    26.1753   Anisotropy =     6.0057

     44  H    Isotropic =    26.2484   Anisotropy =     4.6880

     45  C    Isotropic =   148.8547   Anisotropy =    29.9594

     46  C    Isotropic =   154.3504   Anisotropy =    23.8690

     47  H    Isotropic =    26.9042   Anisotropy =     6.9072

     48  C    Isotropic =   148.2393   Anisotropy =    28.5851

     49  H    Isotropic =    25.5882   Anisotropy =     3.7901

     50  H    Isotropic =    29.8058   Anisotropy =    11.0766

     51  H    Isotropic =    29.6371   Anisotropy =     8.9429

     52  H    Isotropic =    29.0803   Anisotropy =    12.2022

     53  H    Isotropic =    29.3868   Anisotropy =     7.9075

     54  H    Isotropic =    29.6765   Anisotropy =     9.0387

     55  H    Isotropic =    29.9353   Anisotropy =    11.5488

     56  H    Isotropic =    29.1644   Anisotropy =     7.0733

     57  H    Isotropic =    29.1480   Anisotropy =    12.1364

     58  C    Isotropic =   131.0954   Anisotropy =    54.7400

     59  H    Isotropic =    28.9078   Anisotropy =     5.2234

     60  H    Isotropic =    29.5489   Anisotropy =     6.0290

     61  C    Isotropic =   126.7859   Anisotropy =    53.7065

     62  H    Isotropic =    29.4715   Anisotropy =     4.3337

     63  H    Isotropic =    29.2605   Anisotropy =     7.9295

     64  N    Isotropic =   196.1872   Anisotropy =    51.4095

     65  C    Isotropic =   158.8286   Anisotropy =    17.0002

     66  H    Isotropic =    30.2465   Anisotropy =     5.8973

     67  H    Isotropic =    30.4024   Anisotropy =     5.1673

     68  C    Isotropic =   171.6955   Anisotropy =    25.6966

     69  H    Isotropic =    30.5777   Anisotropy =    12.0293

     70  H    Isotropic =    31.1343   Anisotropy =     8.8769

     71  H    Isotropic =    31.1747   Anisotropy =     7.4645

     72  C    Isotropic =   171.1619   Anisotropy =    10.5153

     73  H    Isotropic =    30.4420   Anisotropy =     6.3681

     74  H    Isotropic =    30.8531   Anisotropy =     5.2872

     75  C    Isotropic =   173.2909   Anisotropy =    24.2827

     76  H    Isotropic =    31.5380   Anisotropy =     7.5622

     77  H    Isotropic =    30.7051   Anisotropy =    11.9313

     78  H    Isotropic =    31.2086   Anisotropy =    10.1589

 The electronic state is 1-A.
 Alpha  occ. eigenvalues --  -77.30301 -77.30157 -19.26293 -19.26219 -19.26210
 Alpha  occ. eigenvalues --  -19.26133 -14.41318 -10.33664 -10.33655 -10.33436
 Alpha  occ. eigenvalues --  -10.33380 -10.33368 -10.29831 -10.29811 -10.29737
 Alpha  occ. eigenvalues --  -10.29524 -10.28378 -10.28346 -10.28329 -10.28113
 Alpha  occ. eigenvalues --  -10.28022 -10.27936 -10.26100 -10.26072 -10.26024
 Alpha  occ. eigenvalues --  -10.26001 -10.25553 -10.24978 -10.24357 -10.23839
 Alpha  occ. eigenvalues --   -6.75351  -6.75214  -4.91784  -4.91650  -4.91621
 Alpha  occ. eigenvalues --   -4.91477  -4.91212  -4.91078  -3.32780  -2.09856
 Alpha  occ. eigenvalues --   -2.08956  -2.06152  -1.16861  -1.16679  -1.13335
 Alpha  occ. eigenvalues --   -1.13233  -1.02595  -0.95167  -0.89985  -0.89279
 Alpha  occ. eigenvalues --   -0.88705  -0.87788  -0.87336  -0.86338  -0.86228
 Alpha  occ. eigenvalues --   -0.86203  -0.82572  -0.81059  -0.78572  -0.78021
 Alpha  occ. eigenvalues --   -0.75599  -0.75162  -0.73322  -0.73209  -0.72376
 Alpha  occ. eigenvalues --   -0.71274  -0.69415  -0.68742  -0.67791  -0.66452
 Alpha  occ. eigenvalues --   -0.65276  -0.63299  -0.63147  -0.62669  -0.61542
 Alpha  occ. eigenvalues --   -0.60576  -0.59755  -0.59028  -0.58571  -0.58185
 Alpha  occ. eigenvalues --   -0.57820  -0.57632  -0.56980  -0.56703  -0.55233
 Alpha  occ. eigenvalues --   -0.55000  -0.54507  -0.54332  -0.53679  -0.53257
 Alpha  occ. eigenvalues --   -0.53046  -0.52716  -0.52469  -0.52207  -0.50674
 Alpha  occ. eigenvalues --   -0.49954  -0.49511  -0.49336  -0.48984  -0.48756
 Alpha  occ. eigenvalues --   -0.48741  -0.48586  -0.48087  -0.47901  -0.47685
 Alpha  occ. eigenvalues --   -0.47427  -0.47208  -0.46933  -0.46720  -0.46626
 Alpha  occ. eigenvalues --   -0.46369  -0.45743  -0.45458  -0.45354  -0.44941
 Alpha  occ. eigenvalues --   -0.44589  -0.43918  -0.43599  -0.43528  -0.43047
 Alpha  occ. eigenvalues --   -0.42395  -0.42199  -0.41969  -0.41871  -0.41588
 Alpha  occ. eigenvalues --   -0.41034  -0.40932  -0.40066  -0.37917  -0.37456
 Alpha  occ. eigenvalues --   -0.36706  -0.35777  -0.34736  -0.31957  -0.30991
 Alpha virt. eigenvalues --   -0.17569  -0.14336  -0.10368  -0.09321  -0.08233
 Alpha virt. eigenvalues --   -0.07807  -0.07644  -0.07062  -0.06369  -0.05526
 Alpha virt. eigenvalues --   -0.05426  -0.04856  -0.04647  -0.04484  -0.04039

 Mulliken charges:
               1
     1  P    0.627290
     2  P    0.614844
     3  O   -0.306574
     4  O   -0.341606
     5  O   -0.323028
     6  O   -0.343640
     7  C   -0.348263
     8  C   -0.079032
     9  C   -0.337511
    10  C   -0.066645
    11  C   -0.349992
    12  C   -0.071577
    13  C   -0.338278
    14  C   -0.059479
    15  C   -0.346416
    16  H    0.214807
    17  H    0.134519
    18  H    0.126256
    19  H    0.134590
    20  H    0.136161
    21  H    0.133302
    22  H    0.138385
    23  H    0.130510
    24  H    0.141132
    25  H    0.129445
    26  H    0.135759
    27  H    0.123974
    28  H    0.136105
    29  H    0.135277
    30  H    0.135191
    31  H    0.134099
    32  H    0.132621
    33  H    0.134165
    34  H    0.141221
    35  H    0.134713
    36  H    0.129702
    37  Rh  -0.653516
    38  C   -0.020423
    39  C   -0.102334
    40  C   -0.017133
    41  C   -0.122881
    42  C   -0.351202
    43  H    0.213153
    44  H    0.178976
    45  C   -0.220278
    46  C   -0.340038
    47  H    0.171574
    48  C   -0.215430
    49  H    0.224031
    50  H    0.172617
    51  H    0.166284
    52  H    0.178348
    53  H    0.132489
    54  H    0.168226
    55  H    0.172691
    56  H    0.139362
    57  H    0.175292
    58  C   -0.288834
    59  H    0.173836
    60  H    0.169454
    61  C   -0.171402
    62  H    0.115727
    63  H    0.143476
    64  N   -0.106517
    65  C   -0.241417
    66  H    0.129892
    67  H    0.132306
    68  C   -0.369813
    69  H    0.145505
    70  H    0.114005
    71  H    0.112807
    72  C   -0.191743
    73  H    0.139476
    74  H    0.112422
    75  C   -0.371615
    76  H    0.107352
    77  H    0.145305
    78  H    0.127948
 Sum of Mulliken charges =   1.00000

 Dipole moment (field-independent basis, Debye):
    X=              2.1485    Y=             -0.1179    Z=              0.4264  Tot=              2.1936
 Quadrupole moment (field-independent basis, Debye-Ang):
   XX=           -172.7928   YY=           -175.2859   ZZ=           -195.7952
   XY=              0.0260   XZ=              5.2478   YZ=              1.0580

 Summary of Natural Population Analysis:

                                       Natural Population
                Natural  -----------------------------------------------
    Atom  No    Charge         Core      Valence    Rydberg      Total
 -----------------------------------------------------------------------
      P    1    1.72916      9.99561     3.18315    0.09208    13.27084
      P    2    1.73044      9.99559     3.18156    0.09242    13.26956
      O    3   -0.77730      1.99980     6.76193    0.01557     8.77730
      O    4   -0.78789      1.99981     6.77319    0.01489     8.78789
      O    5   -0.78183      1.99980     6.76659    0.01544     8.78183
      O    6   -0.78908      1.99980     6.77483    0.01445     8.78908
      C    7   -0.61784      1.99933     4.59478    0.02373     6.61784
      C    8   -0.05893      1.99929     4.04431    0.01533     6.05893
      C    9   -0.60805      1.99946     4.60087    0.00772     6.60805
      C   10   -0.06732      1.99929     4.05256    0.01547     6.06732
      C   11   -0.60814      1.99946     4.60118    0.00750     6.60814
      C   12   -0.05893      1.99929     4.04423    0.01541     6.05893
      C   13   -0.60835      1.99946     4.60125    0.00764     6.60835
      C   14   -0.06378      1.99929     4.04959    0.01490     6.06378
      C   15   -0.60869      1.99946     4.60165    0.00758     6.60869
      H   16    0.21183      0.00000     0.78423    0.00394     0.78817
      H   17    0.17141      0.00000     0.82636    0.00223     0.82859
      H   18    0.18017      0.00000     0.81774    0.00209     0.81983
      H   19    0.22143      0.00000     0.77755    0.00103     0.77857
      H   20    0.21763      0.00000     0.78107    0.00130     0.78237
      H   21    0.21600      0.00000     0.78276    0.00124     0.78400
      H   22    0.17968      0.00000     0.81786    0.00247     0.82032
      H   23    0.18089      0.00000     0.81670    0.00241     0.81911
      H   24    0.22433      0.00000     0.77466    0.00101     0.77567
      H   25    0.21126      0.00000     0.78746    0.00127     0.78874
      H   26    0.21576      0.00000     0.78302    0.00121     0.78424
      H   27    0.18194      0.00000     0.81598    0.00209     0.81806
      H   28    0.17302      0.00000     0.82470    0.00228     0.82698
      H   29    0.22212      0.00000     0.77687    0.00102     0.77788
      H   30    0.21674      0.00000     0.78197    0.00130     0.78326
      H   31    0.21559      0.00000     0.78313    0.00128     0.78441
      H   32    0.17885      0.00000     0.81867    0.00248     0.82115
      H   33    0.17913      0.00000     0.81850    0.00237     0.82087
      H   34    0.22464      0.00000     0.77437    0.00099     0.77536
      H   35    0.21551      0.00000     0.78326    0.00123     0.78449
      H   36    0.21243      0.00000     0.78631    0.00127     0.78757
     Rh   37   -0.58495     35.98410     9.57444    0.02641    45.58495
      C   38   -0.14602      1.99907     4.12646    0.02049     6.14602
      C   39   -0.17801      1.99907     4.15734    0.02160     6.17801
      C   40   -0.18933      1.99908     4.16959    0.02066     6.18933
      C   41   -0.13948      1.99907     4.11939    0.02102     6.13948
      C   42   -0.42621      1.99936     4.41483    0.01202     6.42621
      H   43    0.24326      0.00000     0.75504    0.00170     0.75674
      H   44    0.22603      0.00000     0.77197    0.00200     0.77397
      C   45   -0.42416      1.99936     4.41217    0.01263     6.42416
      C   46   -0.42312      1.99936     4.41179    0.01197     6.42312
      H   47    0.22829      0.00000     0.77005    0.00166     0.77171
      C   48   -0.42550      1.99935     4.41365    0.01250     6.42550
      H   49    0.24330      0.00000     0.75468    0.00203     0.75670
      H   50    0.23183      0.00000     0.76678    0.00139     0.76817
      H   51    0.21205      0.00000     0.78594    0.00200     0.78795
      H   52    0.23732      0.00000     0.76091    0.00177     0.76268
      H   53    0.21776      0.00000     0.78067    0.00157     0.78224
      H   54    0.21304      0.00000     0.78496    0.00200     0.78696
      H   55    0.23030      0.00000     0.76827    0.00142     0.76970
      H   56    0.22403      0.00000     0.77441    0.00156     0.77597
      H   57    0.23699      0.00000     0.76121    0.00180     0.76301
      C   58   -0.21304      1.99930     4.19823    0.01550     6.21304
      H   59    0.20743      0.00000     0.79036    0.00221     0.79257
      H   60    0.19248      0.00000     0.80440    0.00313     0.80752
      C   61   -0.20986      1.99931     4.19643    0.01413     6.20986
      H   62    0.15396      0.00000     0.84110    0.00494     0.84604
      H   63    0.20088      0.00000     0.79539    0.00374     0.79912
      N   64   -0.44007      1.99949     5.41355    0.02703     7.44007
      C   65   -0.39449      1.99944     4.38376    0.01130     6.39449
      H   66    0.19573      0.00000     0.80263    0.00164     0.80427
      H   67    0.20725      0.00000     0.79087    0.00188     0.79275
      C   68   -0.58795      1.99947     4.58244    0.00604     6.58795
      H   69    0.21742      0.00000     0.78157    0.00101     0.78258
      H   70    0.19940      0.00000     0.79917    0.00143     0.80060
      H   71    0.19539      0.00000     0.80320    0.00142     0.80461
      C   72   -0.41584      1.99944     4.40596    0.01044     6.41584
      H   73    0.20195      0.00000     0.79633    0.00172     0.79805
      H   74    0.18266      0.00000     0.81532    0.00202     0.81734
      C   75   -0.58929      1.99947     4.58333    0.00649     6.58929
      H   76    0.19269      0.00000     0.80577    0.00154     0.80731
      H   77    0.21604      0.00000     0.78285    0.00110     0.78396
      H   78    0.20607      0.00000     0.79253    0.00140     0.79393
 =======================================================================
   * Total *    1.00000    111.95848   185.34459    0.69693   298.00000

 Normal termination of Gaussian 16 at Wed Jan 22 21:27:13 2025.
