 Gaussian 16, Revision B.01,
 Gaussian 16:  ES64L-G16RevB.01 20-Dec-2017

 ------------------------------------------
 # nmr=giao b3lyp/genecp pop=nbo scfcyc=200
 ------------------------------------------

 ---------
 MS-75_SPE
 ---------
 Symbolic Z-matrix:
 Charge =  1 Multiplicity = 1

                         Standard orientation:
 ---------------------------------------------------------------------
 Center     Atomic      Atomic             Coordinates (Angstroms)
 Number     Number       Type             X           Y           Z
 ---------------------------------------------------------------------
      1         15           0        0.249561   -1.335640   -0.124269
      2         15           0        0.265440    1.348870   -0.094569
      3          8           0        1.041092   -2.056220    1.107401
      4          8           0        0.044122   -2.470790   -1.276799
      5          8           0        1.042969    2.013660    1.176151
      6          8           0        0.098119    2.524850   -1.212269
      7          6           0        1.489981    0.006331   -0.671619
      8          6           0        0.339252   -2.777410    2.159231
      9          6           0        1.356082   -3.205380    3.192371
     10          6           0        1.042402   -3.415720   -1.764829
     11          6           0        0.333083   -4.450650   -2.608089
     12          6           0        0.323579    2.726090    2.223661
     13          6           0        1.310889    3.081160    3.311401
     14          6           0        1.117819    3.469600   -1.654569
     15          6           0        0.436108    4.545740   -2.468509
     16          1           0        1.387101    0.022020   -1.778349
     17          1           0       -0.166137   -3.642200    1.721351
     18          1           0       -0.412428   -2.114071    2.593561
     19          1           0        0.853693   -3.743880    3.998521
     20          1           0        1.863472   -2.339539    3.618181
     21          1           0        2.103943   -3.867089    2.754411
     22          1           0        1.544893   -3.873319   -0.911169
     23          1           0        1.779252   -2.864939   -2.351639
     24          1           0        1.062123   -5.163680   -2.998389
     25          1           0       -0.400767   -5.001271   -2.018449
     26          1           0       -0.174677   -3.984410   -3.452959
     27          1           0       -0.470361    2.078199    2.602721
     28          1           0       -0.130912    3.622540    1.794151
     29          1           0        0.795208    3.613140    4.113471
     30          1           0        1.767029    2.183411    3.729111
     31          1           0        2.101098    3.726771    2.927001
     32          1           0        1.852449    2.927511   -2.251939
     33          1           0        1.617158    3.887951   -0.779239
     34          1           0        1.181838    5.259340   -2.824759
     35          1           0       -0.068992    4.118700   -3.335419
     36          1           0       -0.295422    5.087990   -1.868309
     37         45           0       -1.577329    0.013019    0.121531
     38          6           0       -3.225659   -1.450192   -0.627699
     39          6           0       -3.201059   -1.486992    0.744371
     40          6           0       -3.342060    1.459018    0.578261
     41          6           0       -3.078090    1.499418   -0.769199
     42          6           0       -4.230289   -0.695543   -1.475719
     43          1           0       -2.625468   -2.185782   -1.151149
     44          1           0       -2.626998   -2.285082    1.204441
     45          6           0       -4.093319   -0.729593    1.696191
     46          6           0       -4.472980    0.697927    1.243051
     47          1           0       -2.863091    2.215278    1.191581
     48          6           0       -3.785560    0.733128   -1.857859
     49          1           0       -2.431661    2.292798   -1.127619
     50          1           0       -4.390879   -1.259303   -2.396079
     51          1           0       -5.192899   -0.670993   -0.966369
     52          1           0       -5.005479   -1.309223    1.884441
     53          1           0       -3.578699   -0.672252    2.658321
     54          1           0       -5.335000    0.667847    0.577661
     55          1           0       -4.794340    1.258967    2.122101
     56          1           0       -3.110190    0.680478   -2.713959
     57          1           0       -4.655520    1.308437   -2.198809
     58          6           0        3.584511   -1.218418   -0.613449
     59          6           0        3.598870    1.206482   -0.547959
     60          6           0        4.967471   -1.280748    0.032101
     61          1           0        3.690141   -1.248348   -1.714049
     62          1           0        3.012302   -2.090289   -0.306359
     63          6           0        4.981790    1.217363    0.100481
     64          1           0        3.706700    1.294312   -1.645209
     65          1           0        3.036619    2.067041   -0.194189
     66          6           0        5.784251   -0.026957   -0.276719
     67          1           0        5.481062   -2.177357   -0.324059
     68          1           0        4.843881   -1.386208    1.113601
     69          1           0        5.506009    2.126153   -0.205799
     70          1           0        4.858420    1.264712    1.186111
     71          1           0        6.736031   -0.047107    0.258041
     72          1           0        6.024471    0.000983   -1.345549
     73          7           0        2.849571   -0.011779   -0.200079
 ---------------------------------------------------------------------

 SCF Done:  E(RB3LYP) =  -2013.55408123     A.U. after   16 cycles

      1  P    Isotropic =   173.0063   Anisotropy =   175.7120

      2  P    Isotropic =   171.4331   Anisotropy =   176.0674

      3  O    Isotropic =   197.6780   Anisotropy =   101.2955

      4  O    Isotropic =   194.7196   Anisotropy =    75.1464

      5  O    Isotropic =   198.2592   Anisotropy =   100.9459

      6  O    Isotropic =   195.2336   Anisotropy =    72.8119

      7  C    Isotropic =    69.1913   Anisotropy =    90.3185

      8  C    Isotropic =   113.2041   Anisotropy =    76.2239

      9  C    Isotropic =   167.4631   Anisotropy =    27.4129

     10  C    Isotropic =   115.9532   Anisotropy =    70.4460

     11  C    Isotropic =   167.4437   Anisotropy =    28.3252

     12  C    Isotropic =   113.2698   Anisotropy =    76.9694

     13  C    Isotropic =   167.4471   Anisotropy =    27.4983

     14  C    Isotropic =   115.8397   Anisotropy =    70.4081

     15  C    Isotropic =   167.4833   Anisotropy =    28.2728

     16  H    Isotropic =    27.3146   Anisotropy =     4.8780

     17  H    Isotropic =    27.9292   Anisotropy =     6.7055

     18  H    Isotropic =    27.8874   Anisotropy =     5.0823

     19  H    Isotropic =    30.5919   Anisotropy =    11.3033

     20  H    Isotropic =    30.2391   Anisotropy =     6.5595

     21  H    Isotropic =    30.3288   Anisotropy =     7.9769

     22  H    Isotropic =    27.9349   Anisotropy =     6.3130

     23  H    Isotropic =    28.0339   Anisotropy =     5.2120

     24  H    Isotropic =    30.6426   Anisotropy =    11.4050

     25  H    Isotropic =    30.5800   Anisotropy =     7.4769

     26  H    Isotropic =    30.4166   Anisotropy =     7.5215

     27  H    Isotropic =    27.9402   Anisotropy =     5.3374

     28  H    Isotropic =    28.0042   Anisotropy =     6.8149

     29  H    Isotropic =    30.6134   Anisotropy =    11.3221

     30  H    Isotropic =    30.2610   Anisotropy =     6.5748

     31  H    Isotropic =    30.3307   Anisotropy =     8.0187

     32  H    Isotropic =    27.9975   Anisotropy =     5.1244

     33  H    Isotropic =    27.9160   Anisotropy =     6.2839

     34  H    Isotropic =    30.6188   Anisotropy =    11.3755

     35  H    Isotropic =    30.3749   Anisotropy =     7.5280

     36  H    Isotropic =    30.5440   Anisotropy =     7.5120

     37  Rh   Isotropic =  -272.0629   Anisotropy =   323.2124

     38  C    Isotropic =    64.4846   Anisotropy =   144.8859

     39  C    Isotropic =    74.7421   Anisotropy =   120.2798

     40  C    Isotropic =    75.8874   Anisotropy =   125.4384

     41  C    Isotropic =    63.9337   Anisotropy =   139.4086

     42  C    Isotropic =   153.5236   Anisotropy =    24.9430

     43  H    Isotropic =    26.1796   Anisotropy =     6.0983

     44  H    Isotropic =    26.2231   Anisotropy =     4.6336

     45  C    Isotropic =   148.8982   Anisotropy =    29.7700

     46  C    Isotropic =   154.4172   Anisotropy =    23.7909

     47  H    Isotropic =    26.9049   Anisotropy =     6.8926

     48  C    Isotropic =   148.0701   Anisotropy =    28.7194

     49  H    Isotropic =    25.5830   Anisotropy =     3.7136

     50  H    Isotropic =    29.8061   Anisotropy =    11.0974

     51  H    Isotropic =    29.6268   Anisotropy =     8.9058

     52  H    Isotropic =    29.0768   Anisotropy =    12.1705

     53  H    Isotropic =    29.3705   Anisotropy =     7.9490

     54  H    Isotropic =    29.6654   Anisotropy =     9.0299

     55  H    Isotropic =    29.9200   Anisotropy =    11.5212

     56  H    Isotropic =    29.1449   Anisotropy =     7.0690

     57  H    Isotropic =    29.1433   Anisotropy =    12.1102

     58  C    Isotropic =   126.2349   Anisotropy =    39.6331

     59  C    Isotropic =   126.1922   Anisotropy =    39.1515

     60  C    Isotropic =   155.5648   Anisotropy =     7.2536

     61  H    Isotropic =    30.1343   Anisotropy =     5.9397

     62  H    Isotropic =    28.9883   Anisotropy =     7.3584

     63  C    Isotropic =   155.4610   Anisotropy =     7.3252

     64  H    Isotropic =    30.1180   Anisotropy =     5.9657

     65  H    Isotropic =    28.9541   Anisotropy =     7.4367

     66  C    Isotropic =   158.7648   Anisotropy =     7.7338

     67  H    Isotropic =    30.3590   Anisotropy =    10.1824

     68  H    Isotropic =    30.1734   Anisotropy =     6.8197

     69  H    Isotropic =    30.3619   Anisotropy =    10.1648

     70  H    Isotropic =    30.1703   Anisotropy =     6.7657

     71  H    Isotropic =    30.1689   Anisotropy =    11.3006

     72  H    Isotropic =    30.7671   Anisotropy =     9.3522

     73  N    Isotropic =   189.0399   Anisotropy =    21.5327

 The electronic state is 1-A.
 Alpha  occ. eigenvalues --  -77.30332 -77.30287 -19.26349 -19.26295 -19.26278
 Alpha  occ. eigenvalues --  -19.26236 -14.41625 -10.33732 -10.33691 -10.33465
 Alpha  occ. eigenvalues --  -10.33462 -10.33421 -10.29948 -10.29917 -10.29850
 Alpha  occ. eigenvalues --  -10.29615 -10.28570 -10.28567 -10.28406 -10.28188
 Alpha  occ. eigenvalues --  -10.28096 -10.28016 -10.26087 -10.26080 -10.26073
 Alpha  occ. eigenvalues --  -10.26051 -10.24868 -10.24867 -10.24476  -6.75393
 Alpha  occ. eigenvalues --   -6.75348  -4.91826  -4.91778  -4.91663  -4.91618
 Alpha  occ. eigenvalues --   -4.91253  -4.91210  -3.32908  -2.09981  -2.09089
 Alpha  occ. eigenvalues --   -2.06270  -1.16931  -1.16755  -1.13393  -1.13341
 Alpha  occ. eigenvalues --   -1.03274  -0.95263  -0.90085  -0.90012  -0.88792
 Alpha  occ. eigenvalues --   -0.87835  -0.87777  -0.86310  -0.86292  -0.84524
 Alpha  occ. eigenvalues --   -0.82709  -0.81147  -0.78662  -0.75734  -0.74856
 Alpha  occ. eigenvalues --   -0.73442  -0.73373  -0.72146  -0.71524  -0.71358
 Alpha  occ. eigenvalues --   -0.68726  -0.67504  -0.66538  -0.64598  -0.63256
 Alpha  occ. eigenvalues --   -0.63036  -0.62736  -0.62146  -0.60676  -0.59692
 Alpha  occ. eigenvalues --   -0.59142  -0.58361  -0.58192  -0.57748  -0.57696
 Alpha  occ. eigenvalues --   -0.56914  -0.56319  -0.55734  -0.54449  -0.54307
 Alpha  occ. eigenvalues --   -0.54039  -0.53345  -0.53111  -0.52866  -0.52688
 Alpha  occ. eigenvalues --   -0.52566  -0.51297  -0.50651  -0.50287  -0.49531
 Alpha  occ. eigenvalues --   -0.49235  -0.49000  -0.48815  -0.48731  -0.48650
 Alpha  occ. eigenvalues --   -0.48147  -0.48012  -0.47592  -0.47444  -0.47261
 Alpha  occ. eigenvalues --   -0.46809  -0.46626  -0.46190  -0.45821  -0.45615
 Alpha  occ. eigenvalues --   -0.44852  -0.44020  -0.43746  -0.43675  -0.43254
 Alpha  occ. eigenvalues --   -0.42223  -0.42067  -0.41499  -0.41211  -0.41137
 Alpha  occ. eigenvalues --   -0.40539  -0.40495  -0.39947  -0.37902  -0.37614
 Alpha  occ. eigenvalues --   -0.36837  -0.35889  -0.34838  -0.32168  -0.31823
 Alpha virt. eigenvalues --   -0.17705  -0.14545  -0.10448  -0.09268  -0.08447
 Alpha virt. eigenvalues --   -0.07900  -0.07578  -0.07027  -0.06156  -0.05461
 Alpha virt. eigenvalues --   -0.05288  -0.04922  -0.04504  -0.04251  -0.04010

 Mulliken charges:
               1
     1  P    0.626937
     2  P    0.631569
     3  O   -0.316129
     4  O   -0.336744
     5  O   -0.316942
     6  O   -0.344322
     7  C   -0.357919
     8  C   -0.079289
     9  C   -0.338643
    10  C   -0.069330
    11  C   -0.343447
    12  C   -0.073188
    13  C   -0.336458
    14  C   -0.066662
    15  C   -0.345320
    16  H    0.205999
    17  H    0.135420
    18  H    0.126359
    19  H    0.135237
    20  H    0.136599
    21  H    0.132999
    22  H    0.134582
    23  H    0.135195
    24  H    0.140351
    25  H    0.129446
    26  H    0.134578
    27  H    0.124326
    28  H    0.135247
    29  H    0.135020
    30  H    0.135737
    31  H    0.133264
    32  H    0.135365
    33  H    0.134553
    34  H    0.141189
    35  H    0.134669
    36  H    0.129821
    37  Rh  -0.643834
    38  C   -0.022622
    39  C   -0.099631
    40  C   -0.015063
    41  C   -0.122849
    42  C   -0.351176
    43  H    0.210259
    44  H    0.180605
    45  C   -0.220278
    46  C   -0.340143
    47  H    0.172394
    48  C   -0.217328
    49  H    0.223056
    50  H    0.172937
    51  H    0.166428
    52  H    0.178593
    53  H    0.133006
    54  H    0.168326
    55  H    0.173123
    56  H    0.139978
    57  H    0.175405
    58  C   -0.165004
    59  C   -0.167754
    60  C   -0.245000
    61  H    0.104641
    62  H    0.142301
    63  C   -0.243780
    64  H    0.104050
    65  H    0.143139
    66  C   -0.227673
    67  H    0.135381
    68  H    0.123350
    69  H    0.135300
    70  H    0.122978
    71  H    0.151130
    72  H    0.113178
    73  N   -0.107493
 Sum of Mulliken charges =   1.00000

 Dipole moment (field-independent basis, Debye):
    X=             -1.7508    Y=              0.0153    Z=              0.2595  Tot=              1.7700
 Quadrupole moment (field-independent basis, Debye-Ang):
   XX=           -166.9551   YY=           -167.1839   ZZ=           -187.0123
   XY=              0.2913   XZ=             -5.6802   YZ=              0.1601

 Summary of Natural Population Analysis:

                                       Natural Population
                Natural  -----------------------------------------------
    Atom  No    Charge         Core      Valence    Rydberg      Total
 -----------------------------------------------------------------------
      P    1    1.72915      9.99564     3.18281    0.09241    13.27085
      P    2    1.73059      9.99562     3.18142    0.09237    13.26941
      O    3   -0.77907      1.99980     6.76379    0.01547     8.77907
      O    4   -0.78600      1.99981     6.77132    0.01487     8.78600
      O    5   -0.77916      1.99980     6.76385    0.01550     8.77916
      O    6   -0.78827      1.99981     6.77409    0.01438     8.78827
      C    7   -0.62427      1.99935     4.60135    0.02358     6.62427
      C    8   -0.06038      1.99929     4.04547    0.01561     6.06038
      C    9   -0.60824      1.99946     4.60109    0.00769     6.60824
      C   10   -0.06509      1.99930     4.05086    0.01494     6.06509
      C   11   -0.60834      1.99946     4.60123    0.00765     6.60834
      C   12   -0.06085      1.99929     4.04575    0.01581     6.06085
      C   13   -0.60834      1.99946     4.60123    0.00765     6.60834
      C   14   -0.06465      1.99930     4.05040    0.01495     6.06465
      C   15   -0.60857      1.99946     4.60151    0.00761     6.60857
      H   16    0.21038      0.00000     0.78501    0.00461     0.78962
      H   17    0.17519      0.00000     0.82281    0.00200     0.82481
      H   18    0.18010      0.00000     0.81781    0.00209     0.81990
      H   19    0.22198      0.00000     0.77697    0.00104     0.77802
      H   20    0.21779      0.00000     0.78088    0.00133     0.78221
      H   21    0.21557      0.00000     0.78319    0.00124     0.78443
      H   22    0.17879      0.00000     0.81876    0.00244     0.82121
      H   23    0.17831      0.00000     0.81927    0.00242     0.82169
      H   24    0.22444      0.00000     0.77456    0.00100     0.77556
      H   25    0.21250      0.00000     0.78622    0.00128     0.78750
      H   26    0.21556      0.00000     0.78322    0.00123     0.78444
      H   27    0.18140      0.00000     0.81653    0.00207     0.81860
      H   28    0.17562      0.00000     0.82240    0.00198     0.82438
      H   29    0.22205      0.00000     0.77691    0.00104     0.77795
      H   30    0.21735      0.00000     0.78134    0.00131     0.78265
      H   31    0.21576      0.00000     0.78301    0.00123     0.78424
      H   32    0.17864      0.00000     0.81893    0.00243     0.82136
      H   33    0.17885      0.00000     0.81871    0.00243     0.82115
      H   34    0.22473      0.00000     0.77427    0.00099     0.77527
      H   35    0.21558      0.00000     0.78319    0.00123     0.78442
      H   36    0.21261      0.00000     0.78612    0.00127     0.78739
     Rh   37   -0.58194     35.98418     9.57154    0.02622    45.58194
      C   38   -0.14513      1.99907     4.12555    0.02051     6.14513
      C   39   -0.17703      1.99907     4.15630    0.02166     6.17703
      C   40   -0.18941      1.99908     4.16964    0.02069     6.18941
      C   41   -0.13806      1.99907     4.11797    0.02101     6.13806
      C   42   -0.42637      1.99936     4.41499    0.01202     6.42637
      H   43    0.24287      0.00000     0.75544    0.00169     0.75713
      H   44    0.22564      0.00000     0.77200    0.00236     0.77436
      C   45   -0.42458      1.99936     4.41257    0.01265     6.42458
      C   46   -0.42312      1.99936     4.41179    0.01198     6.42312
      H   47    0.22823      0.00000     0.77001    0.00176     0.77177
      C   48   -0.42579      1.99935     4.41393    0.01251     6.42579
      H   49    0.24330      0.00000     0.75465    0.00204     0.75670
      H   50    0.23210      0.00000     0.76651    0.00139     0.76790
      H   51    0.21222      0.00000     0.78578    0.00201     0.78778
      H   52    0.23763      0.00000     0.76060    0.00176     0.76237
      H   53    0.21815      0.00000     0.78028    0.00157     0.78185
      H   54    0.21312      0.00000     0.78488    0.00200     0.78688
      H   55    0.23053      0.00000     0.76805    0.00142     0.76947
      H   56    0.22435      0.00000     0.77409    0.00156     0.77565
      H   57    0.23720      0.00000     0.76100    0.00180     0.76280
      C   58   -0.21439      1.99934     4.20067    0.01438     6.21439
      C   59   -0.21449      1.99934     4.20080    0.01434     6.21449
      C   60   -0.39134      1.99941     4.38112    0.01081     6.39134
      H   61    0.15142      0.00000     0.84324    0.00534     0.84858
      H   62    0.20382      0.00000     0.79339    0.00280     0.79618
      C   63   -0.39129      1.99941     4.38108    0.01080     6.39129
      H   64    0.15107      0.00000     0.84358    0.00535     0.84893
      H   65    0.20416      0.00000     0.79303    0.00281     0.79584
      C   66   -0.38816      1.99942     4.37915    0.00959     6.38816
      H   67    0.21218      0.00000     0.78642    0.00140     0.78782
      H   68    0.20382      0.00000     0.79421    0.00197     0.79618
      H   69    0.21212      0.00000     0.78648    0.00140     0.78788
      H   70    0.20388      0.00000     0.79415    0.00197     0.79612
      H   71    0.21540      0.00000     0.78329    0.00131     0.78460
      H   72    0.19355      0.00000     0.80463    0.00182     0.80645
      N   73   -0.43733      1.99947     5.41074    0.02711     7.43733
 =======================================================================
   * Total *    1.00000    109.95913   177.34989    0.69098   288.00000

 Normal termination of Gaussian 16 at Wed Jan 22 21:08:18 2025.
