 Gaussian 16, Revision B.01,
 Gaussian 16:  ES64L-G16RevB.01 20-Dec-2017

 ------------------------------------------
 # nmr=giao b3lyp/genecp pop=nbo scfcyc=200
 ------------------------------------------

 ---------
 MS-89_SPE
 ---------
 Symbolic Z-matrix:
 Charge =  1 Multiplicity = 1

                         Standard orientation:
 ---------------------------------------------------------------------
 Center     Atomic      Atomic             Coordinates (Angstroms)
 Number     Number       Type             X           Y           Z
 ---------------------------------------------------------------------
      1         15           0       -1.396200    0.140441   -0.222041
      2         15           0        1.321510    0.079380   -0.094121
      3          6           0        0.019220    1.214950   -0.870731
      4          6           0       -4.809919    1.928972   -1.545441
      5          6           0       -5.065430   -1.002858   -0.557711
      6          6           0       -1.366399    2.977371    2.875499
      7          6           0       -3.997990    1.326432    3.094949
      8          6           0        4.133560   -0.486631    2.432509
      9          6           0        2.601801    1.869229    3.767649
     10          1           0        0.047900    0.911580   -1.940141
     11          1           0       -5.875549    1.978423   -1.783931
     12          1           0       -4.683069    2.286162   -0.521841
     13          1           0       -4.290079    2.614212   -2.217661
     14          1           0       -6.136220   -1.023217   -0.775971
     15          1           0       -4.696241   -2.026868   -0.645851
     16          1           0       -4.949260   -0.681338    0.479149
     17          1           0       -1.270669    3.228771    3.934729
     18          1           0       -0.373869    2.990241    2.423209
     19          1           0       -1.963649    3.758551    2.401119
     20          1           0       -4.136289    1.611032    4.141189
     21          1           0       -4.537939    2.051562    2.482719
     22          1           0       -4.462730    0.348262    2.954959
     23          1           0        4.418420   -0.957071    1.489189
     24          1           0        5.049190   -0.324842    3.007019
     25          1           0        3.516000   -1.187581    2.998229
     26          1           0        3.433951    2.103329    4.436399
     27          1           0        2.044661    2.791780    3.595049
     28          1           0        1.946320    1.166710    4.285699
     29         45           0       -0.103071   -1.718010    0.205439
     30          6           0        1.331269   -3.532730   -0.064661
     31          6           0        1.244189   -3.230720    1.271289
     32          6           0       -1.672041   -3.285099    0.844049
     33          6           0       -1.566751   -3.296309   -0.527601
     34          6           0        0.603708   -4.661530   -0.768421
     35          1           0        2.157519   -3.095160   -0.611831
     36          1           0        2.023899   -2.601430    1.687209
     37          6           0        0.358518   -3.893330    2.296879
     38          6           0       -1.045772   -4.292559    1.789489
     39          1           0       -2.458571   -2.670779    1.268959
     40          6           0       -0.759782   -4.253759   -1.368411
     41          1           0       -2.288631   -2.712849   -1.087651
     42          1           0        1.237258   -5.028880   -1.577661
     43          1           0        0.480998   -5.499330   -0.082821
     44          1           0        0.866478   -4.777680    2.701469
     45          1           0        0.251389   -3.203660    3.136569
     46          1           0       -1.011762   -5.271289    1.311859
     47          1           0       -1.700272   -4.406579    2.655189
     48          1           0       -0.597591   -3.783089   -2.340251
     49          1           0       -1.354842   -5.153669   -1.568961
     50          6           0        4.339691    2.373129    1.239379
     51          1           0        4.648941    1.983569    0.268159
     52          1           0        3.830451    3.325969    1.082529
     53          1           0        5.243181    2.575988    1.820309
     54          6           0       -1.261180   -0.051919    3.613099
     55          1           0       -1.754860   -1.019169    3.501839
     56          1           0       -0.229830   -0.150740    3.270609
     57          1           0       -1.242720    0.189591    4.679029
     58          6           0       -4.284720   -0.420058   -3.522221
     59          1           0       -3.715980    0.236692   -4.183531
     60          1           0       -3.890601   -1.432578   -3.630291
     61          1           0       -5.321000   -0.426568   -3.868921
     62         14           0       -2.169990    1.296171    2.667299
     63         14           0       -4.190040    0.166912   -1.743581
     64         14           0        3.248280    1.151929    2.160119
     65          6           0        4.691939   -1.694411   -2.008801
     66          1           0        5.411589   -1.239482   -1.324901
     67          1           0        4.276349   -2.579061   -1.522231
     68          1           0        5.244039   -2.033042   -2.889261
     69          6           0        4.115620    1.069149   -3.294691
     70          1           0        4.830341    1.550509   -2.624161
     71          1           0        4.649820    0.801029   -4.209851
     72          1           0        3.351201    1.801859   -3.559811
     73          6           0        2.054439   -1.241750   -3.612441
     74          1           0        1.537799   -2.060850   -3.108651
     75          1           0        1.305180   -0.512790   -3.928381
     76          1           0        2.519159   -1.645141   -4.515731
     77         14           0        3.365480   -0.461721   -2.511521
     78          8           0        2.621110    0.072579   -1.052741
     79          8           0        1.833330    0.857220    1.217709
     80          8           0       -2.115500    0.924271    0.984859
     81          8           0       -2.502550    0.136541   -1.385961
     82          6           0        1.265221    3.246600   -1.259651
     83          6           0       -1.141459    3.316911   -1.217471
     84          6           0        1.280012    4.746880   -1.002761
     85          1           0        1.310421    3.068420   -2.347681
     86          1           0        2.146111    2.793270   -0.807201
     87          6           0       -1.053748    4.816261   -0.965041
     88          1           0       -1.244719    3.136621   -2.300471
     89          1           0       -2.026739    2.923321   -0.720221
     90          1           0        2.137472    5.204880   -1.495601
     91          1           0        1.351042    4.937590    0.076889
     92          1           0       -1.897308    5.325351   -1.430921
     93          1           0       -1.077698    5.011981    0.115269
     94          7           0        0.053531    2.641850   -0.683271
     95          8           0        0.122262    5.374170   -1.532181
 ---------------------------------------------------------------------

 SCF Done:  E(RB3LYP) =  -3370.01359382     A.U. after   16 cycles

      1  P    Isotropic =   184.0633   Anisotropy =   168.1006

      2  P    Isotropic =   183.7951   Anisotropy =   165.7203

      3  C    Isotropic =    62.0900   Anisotropy =    97.0294

      4  C    Isotropic =   181.5568   Anisotropy =    11.7730

      5  C    Isotropic =   182.4623   Anisotropy =    12.0629

      6  C    Isotropic =   181.1913   Anisotropy =    11.0365

      7  C    Isotropic =   181.4403   Anisotropy =    15.3499

      8  C    Isotropic =   182.0752   Anisotropy =    11.5288

      9  C    Isotropic =   182.1313   Anisotropy =    12.2951

     10  H    Isotropic =    27.5967   Anisotropy =     5.0445

     11  H    Isotropic =    31.7209   Anisotropy =    11.8946

     12  H    Isotropic =    31.6371   Anisotropy =     6.9784

     13  H    Isotropic =    31.5593   Anisotropy =     7.1183

     14  H    Isotropic =    31.7162   Anisotropy =    11.9681

     15  H    Isotropic =    31.8452   Anisotropy =     7.1401

     16  H    Isotropic =    31.6736   Anisotropy =     7.9245

     17  H    Isotropic =    31.6846   Anisotropy =    10.3761

     18  H    Isotropic =    30.8833   Anisotropy =     8.5497

     19  H    Isotropic =    31.3784   Anisotropy =     7.7844

     20  H    Isotropic =    31.6038   Anisotropy =    11.4028

     21  H    Isotropic =    31.4353   Anisotropy =     7.9231

     22  H    Isotropic =    31.5529   Anisotropy =     7.2524

     23  H    Isotropic =    31.6697   Anisotropy =     7.5781

     24  H    Isotropic =    31.6141   Anisotropy =    11.8540

     25  H    Isotropic =    31.5875   Anisotropy =     6.9945

     26  H    Isotropic =    31.6728   Anisotropy =    11.8354

     27  H    Isotropic =    31.3148   Anisotropy =     7.3890

     28  H    Isotropic =    31.4828   Anisotropy =     7.3934

     29  Rh   Isotropic =  -293.8008   Anisotropy =   335.4192

     30  C    Isotropic =    73.1265   Anisotropy =   128.9470

     31  C    Isotropic =    73.0389   Anisotropy =   122.7552

     32  C    Isotropic =    79.9825   Anisotropy =   120.3878

     33  C    Isotropic =    69.9211   Anisotropy =   127.2596

     34  C    Isotropic =   153.9496   Anisotropy =    24.1079

     35  H    Isotropic =    26.8889   Anisotropy =     6.8632

     36  H    Isotropic =    26.2580   Anisotropy =     4.8717

     37  C    Isotropic =   148.7152   Anisotropy =    26.9545

     38  C    Isotropic =   154.4845   Anisotropy =    23.2993

     39  H    Isotropic =    27.2524   Anisotropy =     5.4185

     40  C    Isotropic =   147.6691   Anisotropy =    28.6141

     41  H    Isotropic =    26.2600   Anisotropy =     4.8730

     42  H    Isotropic =    29.8964   Anisotropy =    10.6111

     43  H    Isotropic =    29.7398   Anisotropy =     9.3354

     44  H    Isotropic =    29.1858   Anisotropy =    12.3266

     45  H    Isotropic =    29.3404   Anisotropy =     6.7291

     46  H    Isotropic =    29.7686   Anisotropy =     9.6625

     47  H    Isotropic =    29.9150   Anisotropy =    10.9184

     48  H    Isotropic =    29.1850   Anisotropy =     6.6062

     49  H    Isotropic =    29.1440   Anisotropy =    12.2573

     50  C    Isotropic =   181.3220   Anisotropy =    12.3115

     51  H    Isotropic =    31.5981   Anisotropy =     7.6927

     52  H    Isotropic =    31.5265   Anisotropy =     7.2843

     53  H    Isotropic =    31.6870   Anisotropy =    11.9255

     54  C    Isotropic =   181.1609   Anisotropy =    10.2263

     55  H    Isotropic =    31.3870   Anisotropy =     7.2098

     56  H    Isotropic =    30.9204   Anisotropy =     8.6646

     57  H    Isotropic =    31.5621   Anisotropy =    10.4322

     58  C    Isotropic =   182.6002   Anisotropy =    14.6627

     59  H    Isotropic =    31.4120   Anisotropy =     7.9331

     60  H    Isotropic =    31.5562   Anisotropy =     7.5481

     61  H    Isotropic =    31.7537   Anisotropy =    11.7727

     62  Si   Isotropic =   312.0366   Anisotropy =    28.2118

     63  Si   Isotropic =   313.2040   Anisotropy =    29.5471

     64  Si   Isotropic =   312.5708   Anisotropy =    31.4631

     65  C    Isotropic =   181.7309   Anisotropy =    13.7062

     66  H    Isotropic =    31.4590   Anisotropy =     7.8474

     67  H    Isotropic =    31.7401   Anisotropy =     7.1303

     68  H    Isotropic =    31.6853   Anisotropy =    11.6649

     69  C    Isotropic =   181.5337   Anisotropy =    14.2739

     70  H    Isotropic =    31.4960   Anisotropy =     7.6715

     71  H    Isotropic =    31.6922   Anisotropy =    11.7332

     72  H    Isotropic =    31.5116   Anisotropy =     7.4809

     73  C    Isotropic =   182.2435   Anisotropy =     9.7579

     74  H    Isotropic =    31.2714   Anisotropy =     9.9516

     75  H    Isotropic =    31.2538   Anisotropy =     6.8921

     76  H    Isotropic =    31.5553   Anisotropy =    11.3856

     77  Si   Isotropic =   314.0393   Anisotropy =    27.8607

     78  O    Isotropic =   184.9108   Anisotropy =   105.4448

     79  O    Isotropic =   192.3547   Anisotropy =   141.0069

     80  O    Isotropic =   190.1718   Anisotropy =   116.2597

     81  O    Isotropic =   183.6853   Anisotropy =   117.2474

     82  C    Isotropic =   127.2684   Anisotropy =    30.9927

     83  C    Isotropic =   128.1815   Anisotropy =    31.1403

     84  C    Isotropic =   115.4290   Anisotropy =    54.9070

     85  H    Isotropic =    29.9216   Anisotropy =     6.5834

     86  H    Isotropic =    29.4658   Anisotropy =     6.1311

     87  C    Isotropic =   115.4548   Anisotropy =    55.1537

     88  H    Isotropic =    29.8359   Anisotropy =     6.3948

     89  H    Isotropic =    29.3995   Anisotropy =     6.3185

     90  H    Isotropic =    28.1813   Anisotropy =     7.3485

     91  H    Isotropic =    28.2423   Anisotropy =     5.2919

     92  H    Isotropic =    28.1777   Anisotropy =     7.5018

     93  H    Isotropic =    28.2400   Anisotropy =     5.4235

     94  N    Isotropic =   186.5628   Anisotropy =    31.0595

     95  O    Isotropic =   280.1596   Anisotropy =    64.3272

 The electronic state is 1-A.
 Alpha  occ. eigenvalues --  -77.30313 -77.30264 -66.26081 -66.25689 -66.25647
 Alpha  occ. eigenvalues --  -66.25591 -19.24089 -19.23935 -19.23817 -19.23721
 Alpha  occ. eigenvalues --  -19.20805 -14.41849 -10.31914 -10.29892 -10.29818
 Alpha  occ. eigenvalues --  -10.29560 -10.29524 -10.29456 -10.29148 -10.28724
 Alpha  occ. eigenvalues --  -10.28609 -10.27998 -10.27959 -10.27848 -10.27734
 Alpha  occ. eigenvalues --  -10.24752 -10.24522 -10.24477 -10.24403 -10.24308
 Alpha  occ. eigenvalues --  -10.24197 -10.24110 -10.24000 -10.23983 -10.23975
 Alpha  occ. eigenvalues --  -10.23819 -10.23636  -6.75138  -6.75097  -5.39576
 Alpha  occ. eigenvalues --   -5.39192  -5.39141  -5.39093  -4.91602  -4.91564
 Alpha  occ. eigenvalues --   -4.91425  -4.91387  -4.91001  -4.90946  -3.75756
 Alpha  occ. eigenvalues --   -3.75365  -3.75328  -3.75326  -3.75309  -3.75274
 Alpha  occ. eigenvalues --   -3.74944  -3.74932  -3.74893  -3.74868  -3.74842
 Alpha  occ. eigenvalues --   -3.74828  -3.31888  -2.08896  -2.08077  -2.05300
 Alpha  occ. eigenvalues --   -1.14014  -1.13761  -1.12238  -1.09412  -1.09333
 Alpha  occ. eigenvalues --   -1.02739  -0.94906  -0.89707  -0.88471  -0.86155
 Alpha  occ. eigenvalues --   -0.85664  -0.81711  -0.81295  -0.81154  -0.80937
 Alpha  occ. eigenvalues --   -0.80835  -0.78340  -0.78085  -0.77788  -0.77697
 Alpha  occ. eigenvalues --   -0.77680  -0.77597  -0.77518  -0.77374  -0.77236
 Alpha  occ. eigenvalues --   -0.77131  -0.74806  -0.73343  -0.71055  -0.70135
 Alpha  occ. eigenvalues --   -0.66311  -0.66030  -0.64997  -0.64549  -0.62961
 Alpha  occ. eigenvalues --   -0.62299  -0.60454  -0.58214  -0.57768  -0.57172
 Alpha  occ. eigenvalues --   -0.56699  -0.56252  -0.56167  -0.55214  -0.54156
 Alpha  occ. eigenvalues --   -0.54137  -0.53549  -0.53342  -0.53113  -0.52941
 Alpha  occ. eigenvalues --   -0.52852  -0.52697  -0.52472  -0.52060  -0.51826
 Alpha  occ. eigenvalues --   -0.51250  -0.51150  -0.50977  -0.50774  -0.50736
 Alpha  occ. eigenvalues --   -0.50551  -0.50347  -0.50147  -0.49992  -0.49900
 Alpha  occ. eigenvalues --   -0.49686  -0.49498  -0.49195  -0.48921  -0.48690
 Alpha  occ. eigenvalues --   -0.48641  -0.48530  -0.48406  -0.48329  -0.48291
 Alpha  occ. eigenvalues --   -0.48192  -0.48129  -0.48080  -0.47941  -0.47880
 Alpha  occ. eigenvalues --   -0.47670  -0.47482  -0.46877  -0.46476  -0.46439
 Alpha  occ. eigenvalues --   -0.46061  -0.45896  -0.45373  -0.45122  -0.44855
 Alpha  occ. eigenvalues --   -0.44574  -0.44134  -0.43558  -0.43191  -0.42322
 Alpha  occ. eigenvalues --   -0.41083  -0.40104  -0.39852  -0.39804  -0.39555
 Alpha  occ. eigenvalues --   -0.39455  -0.39410  -0.39229  -0.39201  -0.38880
 Alpha  occ. eigenvalues --   -0.37027  -0.35755  -0.35504  -0.35009  -0.34251
 Alpha  occ. eigenvalues --   -0.33952  -0.32216  -0.30817
 Alpha virt. eigenvalues --   -0.16783  -0.13634  -0.10034  -0.09119  -0.07948
 Alpha virt. eigenvalues --   -0.07588  -0.07337  -0.07261  -0.06206  -0.05341
 Alpha virt. eigenvalues --   -0.05059  -0.04996  -0.04804  -0.04605  -0.04376

 Mulliken charges:
               1
     1  P    0.737474
     2  P    0.691279
     3  C   -0.423344
     4  C   -0.541146
     5  C   -0.595941
     6  C   -0.542682
     7  C   -0.530623
     8  C   -0.602679
     9  C   -0.524507
    10  H    0.186094
    11  H    0.152984
    12  H    0.139017
    13  H    0.146543
    14  H    0.156342
    15  H    0.143156
    16  H    0.136632
    17  H    0.142746
    18  H    0.154135
    19  H    0.136188
    20  H    0.150062
    21  H    0.143367
    22  H    0.135114
    23  H    0.143793
    24  H    0.160195
    25  H    0.136791
    26  H    0.147156
    27  H    0.145360
    28  H    0.138814
    29  Rh  -0.600506
    30  C   -0.009169
    31  C   -0.083866
    32  C   -0.001927
    33  C   -0.103181
    34  C   -0.356338
    35  H    0.136174
    36  H    0.184887
    37  C   -0.216302
    38  C   -0.364602
    39  H    0.176833
    40  C   -0.235029
    41  H    0.183960
    42  H    0.169486
    43  H    0.169751
    44  H    0.175959
    45  H    0.138406
    46  H    0.168956
    47  H    0.170861
    48  H    0.137414
    49  H    0.175130
    50  C   -0.565527
    51  H    0.139063
    52  H    0.143739
    53  H    0.154579
    54  C   -0.589667
    55  H    0.133209
    56  H    0.142361
    57  H    0.162131
    58  C   -0.524696
    59  H    0.143920
    60  H    0.135340
    61  H    0.142656
    62  Si   0.769578
    63  Si   0.773099
    64  Si   0.784849
    65  C   -0.572621
    66  H    0.144645
    67  H    0.152404
    68  H    0.151706
    69  C   -0.494636
    70  H    0.144626
    71  H    0.149123
    72  H    0.139746
    73  C   -0.573349
    74  H    0.128228
    75  H    0.141639
    76  H    0.158726
    77  Si   0.733342
    78  O   -0.489946
    79  O   -0.461854
    80  O   -0.476462
    81  O   -0.471950
    82  C   -0.176507
    83  C   -0.147059
    84  C   -0.122597
    85  H    0.105579
    86  H    0.162996
    87  C   -0.130828
    88  H    0.109629
    89  H    0.147727
    90  H    0.143382
    91  H    0.110815
    92  H    0.142357
    93  H    0.116566
    94  N   -0.144337
    95  O   -0.244945
 Sum of Mulliken charges =   1.00000

 Dipole moment (field-independent basis, Debye):
    X=              0.2512    Y=             -4.1177    Z=              0.7952  Tot=              4.2013
 Quadrupole moment (field-independent basis, Debye-Ang):
   XX=           -232.9211   YY=           -261.9036   ZZ=           -258.0030
   XY=             -0.4483   XZ=             -0.5079   YZ=              7.5587

 Summary of Natural Population Analysis:

                                       Natural Population
                Natural  -----------------------------------------------
    Atom  No    Charge         Core      Valence    Rydberg      Total
 -----------------------------------------------------------------------
      P    1    1.79426      9.99597     3.11245    0.09732    13.20574
      P    2    1.77225      9.99604     3.13539    0.09632    13.22775
      C    3   -0.65534      1.99936     4.63229    0.02370     6.65534
      C    4   -1.11363      1.99943     5.10580    0.00840     7.11363
      C    5   -1.11462      1.99944     5.10664    0.00854     7.11462
      C    6   -1.11494      1.99943     5.10655    0.00896     7.11494
      C    7   -1.10796      1.99944     5.10046    0.00807     7.10796
      C    8   -1.11561      1.99944     5.10752    0.00865     7.11561
      C    9   -1.10738      1.99943     5.09987    0.00808     7.10738
      H   10    0.21514      0.00000     0.78110    0.00376     0.78486
      H   11    0.24447      0.00000     0.75467    0.00086     0.75553
      H   12    0.23672      0.00000     0.76218    0.00110     0.76328
      H   13    0.23889      0.00000     0.76018    0.00092     0.76111
      H   14    0.24648      0.00000     0.75267    0.00085     0.75352
      H   15    0.23232      0.00000     0.76660    0.00108     0.76768
      H   16    0.23544      0.00000     0.76345    0.00111     0.76456
      H   17    0.23968      0.00000     0.75942    0.00090     0.76032
      H   18    0.24796      0.00000     0.75050    0.00153     0.75204
      H   19    0.23775      0.00000     0.76113    0.00112     0.76225
      H   20    0.24356      0.00000     0.75561    0.00082     0.75644
      H   21    0.23905      0.00000     0.75993    0.00101     0.76095
      H   22    0.23428      0.00000     0.76467    0.00105     0.76572
      H   23    0.23553      0.00000     0.76340    0.00106     0.76447
      H   24    0.24657      0.00000     0.75256    0.00087     0.75343
      H   25    0.23160      0.00000     0.76739    0.00100     0.76840
      H   26    0.24291      0.00000     0.75627    0.00082     0.75709
      H   27    0.24087      0.00000     0.75806    0.00107     0.75913
      H   28    0.23657      0.00000     0.76242    0.00101     0.76343
     Rh   29   -0.53669     35.98542     9.52364    0.02763    45.53669
      C   30   -0.16972      1.99907     4.14948    0.02117     6.16972
      C   31   -0.17086      1.99909     4.15060    0.02118     6.17086
      C   32   -0.19295      1.99908     4.17311    0.02076     6.19295
      C   33   -0.15394      1.99908     4.13373    0.02113     6.15394
      C   34   -0.42638      1.99936     4.41493    0.01210     6.42638
      H   35    0.22125      0.00000     0.77628    0.00247     0.77875
      H   36    0.22881      0.00000     0.76910    0.00210     0.77119
      C   37   -0.42168      1.99935     4.40946    0.01287     6.42168
      C   38   -0.42328      1.99936     4.41194    0.01198     6.42328
      H   39    0.22606      0.00000     0.77194    0.00200     0.77394
      C   40   -0.42075      1.99935     4.40847    0.01292     6.42075
      H   41    0.22801      0.00000     0.76953    0.00246     0.77199
      H   42    0.22854      0.00000     0.76997    0.00149     0.77146
      H   43    0.21607      0.00000     0.78190    0.00203     0.78393
      H   44    0.23555      0.00000     0.76257    0.00188     0.76445
      H   45    0.21857      0.00000     0.77985    0.00159     0.78143
      H   46    0.21488      0.00000     0.78309    0.00203     0.78512
      H   47    0.22909      0.00000     0.76942    0.00148     0.77091
      H   48    0.21797      0.00000     0.78037    0.00166     0.78203
      H   49    0.23479      0.00000     0.76327    0.00194     0.76521
      C   50   -1.11400      1.99943     5.10596    0.00860     7.11400
      H   51    0.23706      0.00000     0.76184    0.00110     0.76294
      H   52    0.23751      0.00000     0.76143    0.00106     0.76249
      H   53    0.24417      0.00000     0.75496    0.00087     0.75583
      C   54   -1.10975      1.99944     5.10133    0.00898     7.10975
      H   55    0.23272      0.00000     0.76613    0.00116     0.76728
      H   56    0.23930      0.00000     0.75945    0.00125     0.76070
      H   57    0.24361      0.00000     0.75546    0.00093     0.75639
      C   58   -1.10562      1.99943     5.09837    0.00781     7.10562
      H   59    0.24149      0.00000     0.75763    0.00088     0.75851
      H   60    0.23645      0.00000     0.76266    0.00089     0.76355
      H   61    0.24245      0.00000     0.75673    0.00082     0.75755
     Si   62    1.86757      9.99786     2.10173    0.03283    12.13243
     Si   63    1.86116      9.99794     2.10778    0.03311    12.13884
     Si   64    1.86339      9.99794     2.10508    0.03359    12.13661
      C   65   -1.10887      1.99943     5.10116    0.00827     7.10887
      H   66    0.24058      0.00000     0.75845    0.00096     0.75942
      H   67    0.23004      0.00000     0.76891    0.00105     0.76996
      H   68    0.24485      0.00000     0.75432    0.00083     0.75515
      C   69   -1.10889      1.99943     5.10143    0.00802     7.10889
      H   70    0.24002      0.00000     0.75894    0.00103     0.75998
      H   71    0.24411      0.00000     0.75505    0.00084     0.75589
      H   72    0.23799      0.00000     0.76090    0.00111     0.76201
      C   73   -1.11204      1.99943     5.10409    0.00852     7.11204
      H   74    0.23400      0.00000     0.76485    0.00116     0.76600
      H   75    0.23678      0.00000     0.76207    0.00115     0.76322
      H   76    0.24613      0.00000     0.75300    0.00088     0.75387
     Si   77    1.86172      9.99791     2.10710    0.03327    12.13828
      O   78   -1.14557      1.99977     7.13606    0.00974     9.14557
      O   79   -1.13040      1.99978     7.11887    0.01175     9.13040
      O   80   -1.14172      1.99976     7.13166    0.01030     9.14172
      O   81   -1.13440      1.99977     7.12381    0.01082     9.13440
      C   82   -0.24719      1.99935     4.23317    0.01468     6.24719
      C   83   -0.24861      1.99935     4.23471    0.01456     6.24861
      C   84   -0.08044      1.99927     4.06376    0.01741     6.08044
      H   85    0.16408      0.00000     0.83111    0.00480     0.83592
      H   86    0.20845      0.00000     0.78878    0.00277     0.79155
      C   87   -0.08062      1.99927     4.06409    0.01726     6.08062
      H   88    0.16808      0.00000     0.82749    0.00442     0.83192
      H   89    0.20962      0.00000     0.78747    0.00291     0.79038
      H   90    0.20001      0.00000     0.79836    0.00163     0.79999
      H   91    0.15934      0.00000     0.83747    0.00319     0.84066
      H   92    0.19977      0.00000     0.79861    0.00162     0.80023
      H   93    0.16064      0.00000     0.83627    0.00310     0.83936
      N   94   -0.43250      1.99947     5.40826    0.02477     7.43250
      O   95   -0.47865      1.99981     6.46461    0.01423     8.47865
 =======================================================================
   * Total *    1.00000    157.95101   225.20320    0.84579   384.00000

 Normal termination of Gaussian 16 at Wed Jan 22 22:30:36 2025.
