 Gaussian 16, Revision B.01,
 Gaussian 16:  ES64L-G16RevB.01 20-Dec-2017

 ------------------------------------------
 # nmr=giao b3lyp/genecp pop=nbo scfcyc=200
 ------------------------------------------

 ---------
 MS-82_SPE
 ---------
 Symbolic Z-matrix:
 Charge =  1 Multiplicity = 1

                         Standard orientation:
 ---------------------------------------------------------------------
 Center     Atomic      Atomic             Coordinates (Angstroms)
 Number     Number       Type             X           Y           Z
 ---------------------------------------------------------------------
      1         15           0        1.387710    0.221561    0.429770
      2         15           0       -1.333550    0.264318    0.307210
      3          6           0       -0.033720    0.713169    1.605580
      4          6           0        5.280620    0.454034    1.801960
      5          6           0        4.032233   -2.087667    3.102130
      6          6           0        3.012117    4.179352   -0.821420
      7          6           0        4.186799    1.519553   -1.942350
      8          6           0       -4.045641    1.533696   -2.085430
      9          6           0       -2.458573    4.157327   -1.529370
     10          1           0       -0.068559   -0.102001    2.335970
     11          1           0        6.073510    0.486665    2.553600
     12          1           0        5.654181   -0.120355    0.952010
     13          1           0        5.095549    1.477944    1.472250
     14          1           0        4.773813   -2.111316    3.904360
     15          1           0        3.115183   -2.542808    3.481860
     16          1           0        4.406553   -2.709107    2.286040
     17          1           0        3.443896    4.774243   -1.630060
     18          1           0        2.107556    4.687841   -0.481770
     19          1           0        3.727047    4.171363    0.003710
     20          1           0        4.624049    1.999424   -2.821770
     21          1           0        4.942929    1.519934   -1.155830
     22          1           0        3.976210    0.481343   -2.208260
     23          1           0       -4.383240    0.582795   -1.667430
     24          1           0       -4.927881    2.058365   -2.460730
     25          1           0       -3.398791    1.327546   -2.941030
     26          1           0       -3.266454    4.809236   -1.870990
     27          1           0       -1.875734    4.713058   -0.791900
     28          1           0       -1.817293    3.948268   -2.387580
     29         45           0        0.069062   -1.037611   -0.989160
     30          6           0       -1.425357   -2.698672   -1.592810
     31          6           0       -1.354648   -1.775982   -2.609080
     32          6           0        1.561323   -2.108569   -2.379690
     33          6           0        1.490793   -2.797049   -1.189710
     34          6           0       -0.729706   -4.046271   -1.571640
     35          1           0       -2.220637   -2.568073   -0.868040
     36          1           0       -2.117888   -1.004373   -2.629310
     37          6           0       -0.521508   -1.867451   -3.863820
     38          6           0        0.875673   -2.500590   -3.675090
     39          1           0        2.362642   -1.383718   -2.476130
     40          6           0        0.662444   -4.024890   -0.902700
     41          1           0        2.251113   -2.585209   -0.445930
     42          1           0       -1.360245   -4.751102   -1.026840
     43          1           0       -0.656965   -4.434711   -2.586960
     44          1           0       -1.074817   -2.420612   -4.632970
     45          1           0       -0.403999   -0.855161   -4.257200
     46          1           0        0.812034   -3.586240   -3.742670
     47          1           0        1.506893   -2.187319   -4.508360
     48          1           0        0.539644   -4.092770    0.180160
     49          1           0        1.223935   -4.920809   -1.196610
     50          6           0       -4.263872    2.937555    0.685320
     51          1           0       -4.716381    2.025155    1.076000
     52          1           0       -3.700083    3.412056    1.490850
     53          1           0       -5.073133    3.614035    0.398670
     54          6           0        1.327858    2.412911   -2.764880
     55          1           0        1.047539    1.389160   -3.023230
     56          1           0        0.426188    2.938280   -2.446630
     57          1           0        1.701648    2.899231   -3.669380
     58          6           0        3.009100    0.747092    3.896000
     59          1           0        2.813509    1.763242    3.546030
     60          1           0        2.084930    0.325771    4.298580
     61          1           0        3.717280    0.821843    4.725210
     62         14           0        2.634478    2.441002   -1.414600
     63         14           0        3.735991   -0.326457    2.529290
     64         14           0       -3.164472    2.581046   -0.794710
     65          6           0       -5.061108   -1.555655    1.904500
     66          1           0       -5.654739   -0.713616    1.543310
     67          1           0       -5.009977   -2.300545    1.107800
     68          1           0       -5.597237   -2.002746    2.745320
     69          6           0       -3.395300    0.322906    3.764320
     70          1           0       -4.078500    1.130156    3.494730
     71          1           0       -3.738779   -0.102094    4.711070
     72          1           0       -2.410610    0.765057    3.928300
     73          6           0       -2.279717   -2.466823    2.954340
     74          1           0       -2.188336   -3.198273    2.148780
     75          1           0       -1.273897   -2.161002    3.250690
     76          1           0       -2.729807   -2.974003    3.811560
     77         14           0       -3.349848   -1.005114    2.438270
     78          8           0       -2.657839   -0.324243    1.011810
     79          8           0       -1.778511    1.708928   -0.252480
     80          8           0        1.975659    1.660861   -0.022130
     81          8           0        2.568871   -0.481158    1.269800
     82          7           0       -0.157681    1.973669    2.263630
     83          1           0        0.446519    2.070830    3.069260
     84          1           0       -0.017192    2.754089    1.634980
 ---------------------------------------------------------------------

 SCF Done:  E(RB3LYP) =  -3138.70721074     A.U. after   16 cycles

      1  P    Isotropic =   175.9503   Anisotropy =   185.9948

      2  P    Isotropic =   174.2779   Anisotropy =   184.9208

      3  C    Isotropic =    75.9104   Anisotropy =    75.6189

      4  C    Isotropic =   181.1738   Anisotropy =    12.6705

      5  C    Isotropic =   182.6374   Anisotropy =    14.6864

      6  C    Isotropic =   182.9768   Anisotropy =    14.6260

      7  C    Isotropic =   181.9424   Anisotropy =    11.5752

      8  C    Isotropic =   182.5588   Anisotropy =    11.8418

      9  C    Isotropic =   182.3539   Anisotropy =    13.2358

     10  H    Isotropic =    27.0958   Anisotropy =     4.5817

     11  H    Isotropic =    31.6669   Anisotropy =    11.7278

     12  H    Isotropic =    31.4964   Anisotropy =     6.7203

     13  H    Isotropic =    31.5936   Anisotropy =     7.3468

     14  H    Isotropic =    31.7089   Anisotropy =    11.6990

     15  H    Isotropic =    31.5696   Anisotropy =     7.7460

     16  H    Isotropic =    31.4171   Anisotropy =     7.6065

     17  H    Isotropic =    31.6789   Anisotropy =    11.3796

     18  H    Isotropic =    31.5000   Anisotropy =     7.8454

     19  H    Isotropic =    31.4655   Anisotropy =     8.6912

     20  H    Isotropic =    31.6630   Anisotropy =    11.3509

     21  H    Isotropic =    31.4441   Anisotropy =     9.1626

     22  H    Isotropic =    31.8672   Anisotropy =     6.9656

     23  H    Isotropic =    31.6139   Anisotropy =     6.3798

     24  H    Isotropic =    31.6099   Anisotropy =    11.7788

     25  H    Isotropic =    31.5863   Anisotropy =     7.1560

     26  H    Isotropic =    31.6658   Anisotropy =    11.7141

     27  H    Isotropic =    31.4773   Anisotropy =     7.2438

     28  H    Isotropic =    31.4585   Anisotropy =     7.9141

     29  Rh   Isotropic =  -285.1165   Anisotropy =   312.2928

     30  C    Isotropic =    70.7056   Anisotropy =   133.0860

     31  C    Isotropic =    75.5409   Anisotropy =   118.9501

     32  C    Isotropic =    81.4312   Anisotropy =   116.6549

     33  C    Isotropic =    69.1003   Anisotropy =   129.8407

     34  C    Isotropic =   153.6140   Anisotropy =    24.7093

     35  H    Isotropic =    26.6873   Anisotropy =     5.9779

     36  H    Isotropic =    26.3696   Anisotropy =     5.0877

     37  C    Isotropic =   148.2915   Anisotropy =    27.8482

     38  C    Isotropic =   154.4253   Anisotropy =    23.2011

     39  H    Isotropic =    27.1966   Anisotropy =     6.6716

     40  C    Isotropic =   147.3744   Anisotropy =    29.3265

     41  H    Isotropic =    26.0540   Anisotropy =     4.1669

     42  H    Isotropic =    29.9039   Anisotropy =    10.7162

     43  H    Isotropic =    29.7263   Anisotropy =     9.1796

     44  H    Isotropic =    29.1295   Anisotropy =    12.3136

     45  H    Isotropic =    29.3468   Anisotropy =     7.1545

     46  H    Isotropic =    29.7681   Anisotropy =     9.4973

     47  H    Isotropic =    29.9127   Anisotropy =    11.1523

     48  H    Isotropic =    29.2566   Anisotropy =     6.7295

     49  H    Isotropic =    29.1799   Anisotropy =    12.2464

     50  C    Isotropic =   181.4025   Anisotropy =    12.8924

     51  H    Isotropic =    31.5998   Anisotropy =     8.3497

     52  H    Isotropic =    31.3243   Anisotropy =     6.3180

     53  H    Isotropic =    31.6832   Anisotropy =    11.7776

     54  C    Isotropic =   180.9944   Anisotropy =    10.8229

     55  H    Isotropic =    31.1159   Anisotropy =     9.5570

     56  H    Isotropic =    31.3970   Anisotropy =    10.2253

     57  H    Isotropic =    31.6132   Anisotropy =    11.0018

     58  C    Isotropic =   182.3451   Anisotropy =    10.9229

     59  H    Isotropic =    31.7081   Anisotropy =     5.8221

     60  H    Isotropic =    31.7400   Anisotropy =     6.9505

     61  H    Isotropic =    31.4886   Anisotropy =    11.9060

     62  Si   Isotropic =   311.7070   Anisotropy =    29.4762

     63  Si   Isotropic =   314.5252   Anisotropy =    30.6405

     64  Si   Isotropic =   312.5239   Anisotropy =    31.1905

     65  C    Isotropic =   182.4669   Anisotropy =    14.5405

     66  H    Isotropic =    31.4595   Anisotropy =     8.0867

     67  H    Isotropic =    31.5335   Anisotropy =     7.3964

     68  H    Isotropic =    31.6853   Anisotropy =    11.6096

     69  C    Isotropic =   182.2977   Anisotropy =    11.6048

     70  H    Isotropic =    31.3608   Anisotropy =     8.1253

     71  H    Isotropic =    31.7236   Anisotropy =    11.5765

     72  H    Isotropic =    31.2874   Anisotropy =     7.8591

     73  C    Isotropic =   181.7728   Anisotropy =    12.0187

     74  H    Isotropic =    31.4934   Anisotropy =     7.5254

     75  H    Isotropic =    31.5084   Anisotropy =     7.5533

     76  H    Isotropic =    31.5941   Anisotropy =    11.4502

     77  Si   Isotropic =   311.8976   Anisotropy =    29.8625

     78  O    Isotropic =   192.4845   Anisotropy =   104.5291

     79  O    Isotropic =   193.0700   Anisotropy =   153.7018

     80  O    Isotropic =   183.6754   Anisotropy =   132.4658

     81  O    Isotropic =   186.9844   Anisotropy =   105.5547

     82  N    Isotropic =   221.3285   Anisotropy =    47.6255

     83  H    Isotropic =    30.5274   Anisotropy =    15.7585

     84  H    Isotropic =    29.7712   Anisotropy =     8.1625

 The electronic state is 1-A.
 Alpha  occ. eigenvalues --  -77.29710 -77.29451 -66.25830 -66.25666 -66.25621
 Alpha  occ. eigenvalues --  -66.25292 -19.23941 -19.23899 -19.23801 -19.23486
 Alpha  occ. eigenvalues --  -14.41414 -10.32239 -10.29223 -10.29185 -10.29040
 Alpha  occ. eigenvalues --  -10.28713 -10.27647 -10.27643 -10.27494 -10.27388
 Alpha  occ. eigenvalues --  -10.24891 -10.24549 -10.24338 -10.24252 -10.24215
 Alpha  occ. eigenvalues --  -10.24073 -10.24042 -10.24041 -10.23953 -10.23813
 Alpha  occ. eigenvalues --  -10.23751 -10.23635  -6.74590  -6.74378  -5.39341
 Alpha  occ. eigenvalues --   -5.39174  -5.39152  -5.38806  -4.91057  -4.90876
 Alpha  occ. eigenvalues --   -4.90843  -4.90634  -4.90433  -4.90235  -3.75513
 Alpha  occ. eigenvalues --   -3.75356  -3.75321  -3.75100  -3.75074  -3.74978
 Alpha  occ. eigenvalues --   -3.74925  -3.74903  -3.74903  -3.74895  -3.74557
 Alpha  occ. eigenvalues --   -3.74545  -3.31759  -2.08746  -2.07911  -2.05222
 Alpha  occ. eigenvalues --   -1.13679  -1.13411  -1.09345  -1.09110  -1.00182
 Alpha  occ. eigenvalues --   -0.94524  -0.89294  -0.88109  -0.83362  -0.81557
 Alpha  occ. eigenvalues --   -0.81153  -0.80925  -0.80599  -0.80369  -0.78043
 Alpha  occ. eigenvalues --   -0.77954  -0.77752  -0.77691  -0.77573  -0.77494
 Alpha  occ. eigenvalues --   -0.77367  -0.77272  -0.77081  -0.73447  -0.70877
 Alpha  occ. eigenvalues --   -0.70686  -0.65910  -0.65316  -0.64416  -0.62572
 Alpha  occ. eigenvalues --   -0.61782  -0.60680  -0.59969  -0.57244  -0.56316
 Alpha  occ. eigenvalues --   -0.56096  -0.55159  -0.53956  -0.53761  -0.53575
 Alpha  occ. eigenvalues --   -0.53043  -0.52743  -0.52626  -0.52430  -0.52371
 Alpha  occ. eigenvalues --   -0.51758  -0.51620  -0.51301  -0.50941  -0.50897
 Alpha  occ. eigenvalues --   -0.50735  -0.50437  -0.50340  -0.50277  -0.50019
 Alpha  occ. eigenvalues --   -0.49734  -0.49540  -0.49334  -0.49188  -0.48761
 Alpha  occ. eigenvalues --   -0.48692  -0.48558  -0.48405  -0.48331  -0.48254
 Alpha  occ. eigenvalues --   -0.48137  -0.48041  -0.47982  -0.47890  -0.47750
 Alpha  occ. eigenvalues --   -0.47608  -0.47426  -0.46731  -0.46238  -0.46174
 Alpha  occ. eigenvalues --   -0.46099  -0.45727  -0.45027  -0.44679  -0.44579
 Alpha  occ. eigenvalues --   -0.43488  -0.43175  -0.42228  -0.41506  -0.39944
 Alpha  occ. eigenvalues --   -0.39933  -0.39758  -0.39710  -0.39423  -0.39249
 Alpha  occ. eigenvalues --   -0.39029  -0.38760  -0.37586  -0.36399  -0.35495
 Alpha  occ. eigenvalues --   -0.34763  -0.33733  -0.33192  -0.30841
 Alpha virt. eigenvalues --   -0.16537  -0.13522  -0.09842  -0.09281  -0.08671
 Alpha virt. eigenvalues --   -0.07785  -0.07236  -0.07127  -0.05979  -0.05210
 Alpha virt. eigenvalues --   -0.04926  -0.04804  -0.04471  -0.04071  -0.03892

 Mulliken charges:
               1
     1  P    0.759792
     2  P    0.780848
     3  C   -0.490044
     4  C   -0.556047
     5  C   -0.515264
     6  C   -0.507437
     7  C   -0.559332
     8  C   -0.589462
     9  C   -0.534750
    10  H    0.204237
    11  H    0.149569
    12  H    0.144188
    13  H    0.136677
    14  H    0.145194
    15  H    0.136040
    16  H    0.141841
    17  H    0.142393
    18  H    0.138187
    19  H    0.142869
    20  H    0.151892
    21  H    0.146346
    22  H    0.128480
    23  H    0.142875
    24  H    0.156222
    25  H    0.135490
    26  H    0.149016
    27  H    0.138006
    28  H    0.140552
    29  Rh  -0.596558
    30  C   -0.047410
    31  C   -0.095595
    32  C   -0.035482
    33  C   -0.104239
    34  C   -0.351395
    35  H    0.186987
    36  H    0.195022
    37  C   -0.220345
    38  C   -0.352901
    39  H    0.176214
    40  C   -0.222643
    41  H    0.204372
    42  H    0.167355
    43  H    0.168199
    44  H    0.173868
    45  H    0.134741
    46  H    0.165802
    47  H    0.169089
    48  H    0.131347
    49  H    0.172496
    50  C   -0.544100
    51  H    0.129087
    52  H    0.146573
    53  H    0.145711
    54  C   -0.537306
    55  H    0.127490
    56  H    0.131159
    57  H    0.155698
    58  C   -0.581426
    59  H    0.132306
    60  H    0.132686
    61  H    0.158417
    62  Si   0.734562
    63  Si   0.762457
    64  Si   0.778390
    65  C   -0.510518
    66  H    0.146210
    67  H    0.138332
    68  H    0.145090
    69  C   -0.531277
    70  H    0.145263
    71  H    0.143722
    72  H    0.144748
    73  C   -0.555947
    74  H    0.133740
    75  H    0.127996
    76  H    0.155887
    77  Si   0.724331
    78  O   -0.505269
    79  O   -0.481772
    80  O   -0.485944
    81  O   -0.473400
    82  N   -0.360973
    83  H    0.222125
    84  H    0.228652
 Sum of Mulliken charges =   1.00000

 Dipole moment (field-independent basis, Debye):
    X=              0.7692    Y=             -0.6269    Z=              0.3026  Tot=              1.0374
 Quadrupole moment (field-independent basis, Debye-Ang):
   XX=           -210.6226   YY=           -225.3365   ZZ=           -221.9034
   XY=              2.6284   XZ=              2.3767   YZ=             -0.9557

 Summary of Natural Population Analysis:

                                       Natural Population
                Natural  -----------------------------------------------
    Atom  No    Charge         Core      Valence    Rydberg      Total
 -----------------------------------------------------------------------
      P    1    1.73902      9.99598     3.17135    0.09365    13.26098
      P    2    1.77842      9.99602     3.13013    0.09544    13.22158
      C    3   -0.64742      1.99944     4.62301    0.02497     6.64742
      C    4   -1.11125      1.99944     5.10357    0.00824     7.11125
      C    5   -1.10566      1.99944     5.09834    0.00788     7.10566
      C    6   -1.10555      1.99943     5.09813    0.00799     7.10555
      C    7   -1.11094      1.99943     5.10304    0.00847     7.11094
      C    8   -1.11583      1.99944     5.10789    0.00850     7.11583
      C    9   -1.10536      1.99944     5.09786    0.00806     7.10536
      H   10    0.23234      0.00000     0.76524    0.00242     0.76766
      H   11    0.24456      0.00000     0.75459    0.00084     0.75544
      H   12    0.24063      0.00000     0.75843    0.00094     0.75937
      H   13    0.23518      0.00000     0.76373    0.00109     0.76482
      H   14    0.24293      0.00000     0.75625    0.00082     0.75707
      H   15    0.23738      0.00000     0.76171    0.00091     0.76262
      H   16    0.24060      0.00000     0.75853    0.00087     0.75940
      H   17    0.24302      0.00000     0.75614    0.00084     0.75698
      H   18    0.23782      0.00000     0.76118    0.00100     0.76218
      H   19    0.23969      0.00000     0.75938    0.00093     0.76031
      H   20    0.24460      0.00000     0.75455    0.00085     0.75540
      H   21    0.24049      0.00000     0.75847    0.00104     0.75951
      H   22    0.22934      0.00000     0.76959    0.00107     0.77066
      H   23    0.23707      0.00000     0.76195    0.00097     0.76293
      H   24    0.24555      0.00000     0.75359    0.00086     0.75445
      H   25    0.23343      0.00000     0.76557    0.00101     0.76657
      H   26    0.24306      0.00000     0.75612    0.00082     0.75694
      H   27    0.23735      0.00000     0.76170    0.00095     0.76265
      H   28    0.23491      0.00000     0.76401    0.00108     0.76509
     Rh   29   -0.56329     35.98512     9.54887    0.02930    45.56329
      C   30   -0.15550      1.99906     4.13581    0.02062     6.15550
      C   31   -0.17615      1.99907     4.15587    0.02121     6.17615
      C   32   -0.19769      1.99907     4.17769    0.02093     6.19769
      C   33   -0.14439      1.99907     4.12431    0.02101     6.14439
      C   34   -0.42471      1.99936     4.41331    0.01203     6.42471
      H   35    0.22784      0.00000     0.77001    0.00215     0.77216
      H   36    0.23016      0.00000     0.76786    0.00199     0.76984
      C   37   -0.42249      1.99936     4.41072    0.01241     6.42249
      C   38   -0.42113      1.99936     4.40987    0.01190     6.42113
      H   39    0.22305      0.00000     0.77464    0.00231     0.77695
      C   40   -0.42220      1.99936     4.41034    0.01250     6.42220
      H   41    0.23555      0.00000     0.76230    0.00215     0.76445
      H   42    0.22782      0.00000     0.77067    0.00151     0.77218
      H   43    0.21235      0.00000     0.78560    0.00205     0.78765
      H   44    0.23507      0.00000     0.76306    0.00187     0.76493
      H   45    0.21839      0.00000     0.78008    0.00153     0.78161
      H   46    0.21150      0.00000     0.78645    0.00206     0.78850
      H   47    0.22857      0.00000     0.76990    0.00153     0.77143
      H   48    0.22012      0.00000     0.77835    0.00153     0.77988
      H   49    0.23386      0.00000     0.76421    0.00193     0.76614
      C   50   -1.11111      1.99944     5.10305    0.00863     7.11111
      H   51    0.23314      0.00000     0.76568    0.00119     0.76686
      H   52    0.24289      0.00000     0.75601    0.00111     0.75711
      H   53    0.24201      0.00000     0.75711    0.00088     0.75799
      C   54   -1.10687      1.99943     5.09869    0.00875     7.10687
      H   55    0.23562      0.00000     0.76315    0.00124     0.76438
      H   56    0.23845      0.00000     0.76037    0.00118     0.76155
      H   57    0.24254      0.00000     0.75657    0.00089     0.75746
      C   58   -1.11866      1.99944     5.11007    0.00915     7.11866
      H   59    0.23144      0.00000     0.76698    0.00158     0.76856
      H   60    0.23056      0.00000     0.76844    0.00099     0.76944
      H   61    0.24953      0.00000     0.74960    0.00087     0.75047
     Si   62    1.85690      9.99797     2.11135    0.03378    12.14310
     Si   63    1.85715      9.99798     2.11180    0.03308    12.14285
     Si   64    1.86043      9.99798     2.10801    0.03357    12.13957
      C   65   -1.10608      1.99943     5.09879    0.00786     7.10608
      H   66    0.23993      0.00000     0.75907    0.00099     0.76007
      H   67    0.23804      0.00000     0.76105    0.00091     0.76196
      H   68    0.24329      0.00000     0.75589    0.00082     0.75671
      C   69   -1.11537      1.99943     5.10739    0.00856     7.11537
      H   70    0.24231      0.00000     0.75668    0.00101     0.75769
      H   71    0.24171      0.00000     0.75742    0.00087     0.75829
      H   72    0.24293      0.00000     0.75582    0.00125     0.75707
      C   73   -1.10977      1.99944     5.10190    0.00843     7.10977
      H   74    0.23502      0.00000     0.76396    0.00103     0.76498
      H   75    0.22744      0.00000     0.77144    0.00112     0.77256
      H   76    0.24534      0.00000     0.75380    0.00086     0.75466
     Si   77    1.85698      9.99797     2.11200    0.03305    12.14302
      O   78   -1.13866      1.99977     7.12928    0.00961     9.13866
      O   79   -1.13249      1.99978     7.12123    0.01148     9.13249
      O   80   -1.13305      1.99979     7.12184    0.01142     9.13305
      O   81   -1.13546      1.99978     7.12570    0.00999     9.13546
      N   82   -0.80413      1.99957     5.78472    0.01984     7.80413
      H   83    0.37130      0.00000     0.62612    0.00258     0.62870
      H   84    0.37460      0.00000     0.62308    0.00232     0.62540
 =======================================================================
   * Total *    1.00000    147.95409   197.30800    0.73791   346.00000

 Normal termination of Gaussian 16 at Wed Jan 22 21:45:05 2025.
