 Gaussian 16, Revision B.01,
 Gaussian 16:  ES64L-G16RevB.01 20-Dec-2017

 ------------------------------------------
 # nmr=giao b3lyp/genecp pop=nbo scfcyc=200
 ------------------------------------------

 ---------
 MS-85_SPE
 ---------
 Symbolic Z-matrix:
 Charge =  1 Multiplicity = 1

                         Standard orientation:
 ---------------------------------------------------------------------
 Center     Atomic      Atomic             Coordinates (Angstroms)
 Number     Number       Type             X           Y           Z
 ---------------------------------------------------------------------
      1         15           0        1.119250   -0.320250   -0.252000
      2         15           0       -1.682070   -0.314679   -0.801050
      3          8           0       -0.384670   -2.676100   -1.140490
      4          6           0       -2.799450   -0.036599   -2.326930
      5          6           0       -2.147190    1.053401   -3.190080
      6          6           0       -2.945450   -1.334379   -3.132930
      7          6           0       -4.179760    0.422491   -1.830430
      8          6           0       -0.160670   -1.282470   -1.320570
      9          6           0       -1.488430   -2.921469   -0.357440
     10          6           0       -2.288870   -1.836059    0.010980
     11          6           0       -3.703180   -3.336099    1.252390
     12          6           0       -1.791661   -4.214899    0.043800
     13          6           0       -2.906971   -4.409329    0.850860
     14          1           0       -4.561230   -3.506869    1.888910
     15          1           0       -1.165761   -5.041089   -0.266460
     16          1           0       -3.154791   -5.411699    1.176290
     17          1           0       -2.003630    1.984291   -2.640140
     18          1           0        0.116490   -1.118590   -2.361490
     19          1           0       -1.177350    0.739371   -3.582430
     20          1           0       -3.409800   -2.129529   -2.549580
     21          1           0       -4.672490   -0.346649   -1.233970
     22          1           0       -2.789610    1.264931   -4.048490
     23          1           0       -1.989190   -1.699259   -3.511620
     24          1           0       -3.585270   -1.143019   -3.998580
     25          1           0       -4.130530    1.338981   -1.240160
     26          1           0       -4.820540    0.625311   -2.692310
     27         45           0       -0.499220    1.371850    0.345190
     28          6           0       -2.072890    3.029271    0.357090
     29          6           0       -2.173630    2.287821    1.517510
     30          6           0        0.694020    2.725600    1.752550
     31          6           0        0.819660    3.195930    0.462220
     32          1           0       -2.740380    2.762151   -0.452450
     33          6           0       -1.430609    4.397071    0.231870
     34          1           0       -2.929890    1.509391    1.543970
     35          6           0       -1.605970    2.642501    2.868820
     36          6           0       -0.211940    3.303790    2.822750
     37          1           0        1.483640    2.079860    2.113190
     38          1           0        1.709650    2.905680   -0.084180
     39          6           0        0.056951    4.333930   -0.167050
     40          1           0       -1.554159    4.949521    1.162810
     41          1           0       -1.970079    4.965901   -0.527170
     42          1           0       -2.309640    3.292141    3.404360
     43          1           0       -1.545890    1.722641    3.454540
     44          1           0        0.266830    3.165620    3.793460
     45          1           0       -0.304689    4.380920    2.686250
     46          1           0        0.550891    5.283340    0.075330
     47          1           0        0.133281    4.227430   -1.251310
     48          6           0       -3.396010   -2.047459    0.831880
     49          1           0       -4.019480   -1.217369    1.139370
     50          6           0        1.966490   -1.385570    1.071130
     51          6           0        2.492230   -0.482430    2.204970
     52          6           0        1.135430   -2.538820    1.655780
     53          1           0        2.823290   -1.820750    0.548110
     54          6           0        3.317260   -1.282900    3.221160
     55          1           0        1.635000   -0.035060    2.716970
     56          1           0        3.092540    0.339330    1.809100
     57          6           0        1.946330   -3.330290    2.694390
     58          1           0        0.230120   -2.140620    2.125570
     59          1           0        0.820370   -3.214210    0.865180
     60          6           0        2.505970   -2.440900    3.805470
     61          1           0        3.659650   -0.614420    4.015000
     62          1           0        4.217790   -1.672890    2.733890
     63          1           0        1.314029   -4.115730    3.115400
     64          1           0        2.773499   -3.839390    2.186890
     65          1           0        3.123510   -3.030670    4.486580
     66          1           0        1.679910   -2.038860    4.403140
     67          6           0        2.472930    0.014710   -1.531320
     68          6           0        3.663320    0.813330   -0.969490
     69          6           0        2.978600   -1.251650   -2.248980
     70          1           0        1.962010    0.647790   -2.266740
     71          6           0        4.652980    1.181960   -2.084880
     72          1           0        4.186390    0.209800   -0.221540
     73          1           0        3.326510    1.718990   -0.461500
     74          6           0        3.971770   -0.889130   -3.364700
     75          1           0        3.478380   -1.907210   -1.529110
     76          1           0        2.152640   -1.828560   -2.670000
     77          6           0        5.143590   -0.058540   -2.835450
     78          1           0        5.497290    1.725920   -1.654870
     79          1           0        4.165620    1.867420   -2.787250
     80          1           0        4.335350   -1.805450   -3.835540
     81          1           0        3.446790   -0.326180   -4.144610
     82          1           0        5.799380    0.234090   -3.658400
     83          1           0        5.749010   -0.674140   -2.160660
 ---------------------------------------------------------------------

 SCF Done:  E(RB3LYP) =  -2079.07562649     A.U. after   15 cycles

      1  P    Isotropic =   289.1519   Anisotropy =    77.5602

      2  P    Isotropic =   279.7683   Anisotropy =    72.8462

      3  O    Isotropic =   156.7216   Anisotropy =    93.1771

      4  C    Isotropic =   135.9282   Anisotropy =    31.3448

      5  C    Isotropic =   157.0212   Anisotropy =    37.8836

      6  C    Isotropic =   158.9071   Anisotropy =    42.1148

      7  C    Isotropic =   160.1668   Anisotropy =    38.3154

      8  C    Isotropic =    82.1098   Anisotropy =    58.4811

      9  C    Isotropic =    12.6185   Anisotropy =   113.4735

     10  C    Isotropic =    60.8369   Anisotropy =   126.6673

     11  C    Isotropic =    55.0845   Anisotropy =   180.4339

     12  C    Isotropic =    64.8649   Anisotropy =   157.3553

     13  C    Isotropic =    43.2701   Anisotropy =   196.8595

     14  H    Isotropic =    24.5204   Anisotropy =     5.1594

     15  H    Isotropic =    24.7570   Anisotropy =     7.1928

     16  H    Isotropic =    24.1371   Anisotropy =     3.9924

     17  H    Isotropic =    30.2511   Anisotropy =     6.9973

     18  H    Isotropic =    25.9926   Anisotropy =     4.5846

     19  H    Isotropic =    30.6362   Anisotropy =     6.7894

     20  H    Isotropic =    31.5008   Anisotropy =     5.5148

     21  H    Isotropic =    30.7952   Anisotropy =     8.0093

     22  H    Isotropic =    30.6401   Anisotropy =    10.7634

     23  H    Isotropic =    31.0602   Anisotropy =     7.3011

     24  H    Isotropic =    31.0521   Anisotropy =    11.5871

     25  H    Isotropic =    31.1165   Anisotropy =     6.4513

     26  H    Isotropic =    30.9348   Anisotropy =    11.4551

     27  Rh   Isotropic =  -337.4037   Anisotropy =   380.0397

     28  C    Isotropic =    82.2239   Anisotropy =   118.2422

     29  C    Isotropic =    79.2877   Anisotropy =   114.0265

     30  C    Isotropic =    80.6374   Anisotropy =   122.4687

     31  C    Isotropic =    74.7411   Anisotropy =   119.7765

     32  H    Isotropic =    26.8731   Anisotropy =     5.9791

     33  C    Isotropic =   154.6142   Anisotropy =    24.0584

     34  H    Isotropic =    26.1532   Anisotropy =     5.3737

     35  C    Isotropic =   147.4778   Anisotropy =    30.0977

     36  C    Isotropic =   154.7913   Anisotropy =    24.0597

     37  H    Isotropic =    26.8657   Anisotropy =     5.4339

     38  H    Isotropic =    26.0028   Anisotropy =     5.1103

     39  C    Isotropic =   146.3512   Anisotropy =    31.3731

     40  H    Isotropic =    29.8156   Anisotropy =     9.5425

     41  H    Isotropic =    29.8716   Anisotropy =    11.3636

     42  H    Isotropic =    29.0480   Anisotropy =    12.7434

     43  H    Isotropic =    29.1015   Anisotropy =     7.3181

     44  H    Isotropic =    29.9299   Anisotropy =    11.0288

     45  H    Isotropic =    29.8667   Anisotropy =     9.6479

     46  H    Isotropic =    29.0865   Anisotropy =    12.5090

     47  H    Isotropic =    29.0717   Anisotropy =     7.0799

     48  C    Isotropic =    48.3133   Anisotropy =   182.8834

     49  H    Isotropic =    24.3504   Anisotropy =     9.0612

     50  C    Isotropic =   138.5263   Anisotropy =    30.9525

     51  C    Isotropic =   145.6668   Anisotropy =    15.3048

     52  C    Isotropic =   153.8110   Anisotropy =     8.9893

     53  H    Isotropic =    29.3346   Anisotropy =     5.8713

     54  C    Isotropic =   154.4588   Anisotropy =     7.2504

     55  H    Isotropic =    30.5128   Anisotropy =     7.7180

     56  H    Isotropic =    30.5911   Anisotropy =     4.9155

     57  C    Isotropic =   154.5263   Anisotropy =     8.9064

     58  H    Isotropic =    31.3804   Anisotropy =     7.9300

     59  H    Isotropic =    30.0498   Anisotropy =     9.9491

     60  C    Isotropic =   156.1225   Anisotropy =     3.1302

     61  H    Isotropic =    30.1944   Anisotropy =    10.3383

     62  H    Isotropic =    30.5603   Anisotropy =     8.6173

     63  H    Isotropic =    30.4015   Anisotropy =     9.4734

     64  H    Isotropic =    30.6489   Anisotropy =     8.5736

     65  H    Isotropic =    30.2507   Anisotropy =    11.9181

     66  H    Isotropic =    30.7760   Anisotropy =     7.4097

     67  C    Isotropic =   133.2737   Anisotropy =    32.0647

     68  C    Isotropic =   151.5610   Anisotropy =     9.6262

     69  C    Isotropic =   153.6851   Anisotropy =    11.2441

     70  H    Isotropic =    30.0626   Anisotropy =     5.0860

     71  C    Isotropic =   153.6353   Anisotropy =     8.6035

     72  H    Isotropic =    30.6600   Anisotropy =     5.7146

     73  H    Isotropic =    30.4057   Anisotropy =     8.0879

     74  C    Isotropic =   153.4956   Anisotropy =     8.9447

     75  H    Isotropic =    30.2953   Anisotropy =     4.9325

     76  H    Isotropic =    29.8388   Anisotropy =     6.5528

     77  C    Isotropic =   155.9339   Anisotropy =     2.3588

     78  H    Isotropic =    29.9723   Anisotropy =    10.3736

     79  H    Isotropic =    30.5200   Anisotropy =     7.7781

     80  H    Isotropic =    29.8148   Anisotropy =    10.7967

     81  H    Isotropic =    30.4407   Anisotropy =     7.9868

     82  H    Isotropic =    30.0166   Anisotropy =    11.7326

     83  H    Isotropic =    30.4676   Anisotropy =     8.9702

 The electronic state is 1-A.
 Alpha  occ. eigenvalues --  -77.23436 -77.23095 -19.27969 -10.36019 -10.34766
 Alpha  occ. eigenvalues --  -10.31348 -10.29854 -10.29736 -10.29720 -10.29679
 Alpha  occ. eigenvalues --  -10.29621 -10.29403 -10.29152 -10.29093 -10.28299
 Alpha  occ. eigenvalues --  -10.27984 -10.27953 -10.27936 -10.27735 -10.27681
 Alpha  occ. eigenvalues --  -10.27491 -10.27430 -10.27185 -10.27139 -10.27103
 Alpha  occ. eigenvalues --  -10.27082 -10.26528 -10.26379 -10.25786 -10.25712
 Alpha  occ. eigenvalues --  -10.25544 -10.25266 -10.25105 -10.24837  -6.69539
 Alpha  occ. eigenvalues --   -6.69090  -4.85834  -4.85714  -4.85433  -4.85401
 Alpha  occ. eigenvalues --   -4.85254  -4.85000  -3.32082  -2.08952  -2.08322
 Alpha  occ. eigenvalues --   -2.05520  -1.19185  -0.96786  -0.95001  -0.94199
 Alpha  occ. eigenvalues --   -0.93150  -0.93050  -0.89690  -0.88512  -0.88363
 Alpha  occ. eigenvalues --   -0.86536  -0.85648  -0.84360  -0.83906  -0.83810
 Alpha  occ. eigenvalues --   -0.83230  -0.80847  -0.79965  -0.79553  -0.78322
 Alpha  occ. eigenvalues --   -0.75571  -0.73644  -0.71260  -0.71210  -0.71000
 Alpha  occ. eigenvalues --   -0.70702  -0.70542  -0.70056  -0.66646  -0.66425
 Alpha  occ. eigenvalues --   -0.65680  -0.65267  -0.64640  -0.63026  -0.61236
 Alpha  occ. eigenvalues --   -0.60728  -0.60384  -0.59010  -0.58092  -0.57671
 Alpha  occ. eigenvalues --   -0.57500  -0.56707  -0.56688  -0.55574  -0.55125
 Alpha  occ. eigenvalues --   -0.54814  -0.54488  -0.54428  -0.54111  -0.54086
 Alpha  occ. eigenvalues --   -0.53722  -0.53592  -0.53162  -0.53140  -0.52800
 Alpha  occ. eigenvalues --   -0.51908  -0.51264  -0.50742  -0.49644  -0.49590
 Alpha  occ. eigenvalues --   -0.49125  -0.48644  -0.48475  -0.48075  -0.47975
 Alpha  occ. eigenvalues --   -0.47759  -0.47530  -0.47294  -0.46968  -0.46789
 Alpha  occ. eigenvalues --   -0.46534  -0.46470  -0.46056  -0.45301  -0.45194
 Alpha  occ. eigenvalues --   -0.45100  -0.44815  -0.44284  -0.44104  -0.43876
 Alpha  occ. eigenvalues --   -0.43417  -0.43317  -0.42639  -0.42162  -0.41690
 Alpha  occ. eigenvalues --   -0.41537  -0.41111  -0.40262  -0.40097  -0.39110
 Alpha  occ. eigenvalues --   -0.38875  -0.38173  -0.36886  -0.36294  -0.35399
 Alpha  occ. eigenvalues --   -0.34837  -0.34306  -0.33277  -0.31265
 Alpha virt. eigenvalues --   -0.16971  -0.15094  -0.13099  -0.11188  -0.10282
 Alpha virt. eigenvalues --   -0.09415  -0.08677  -0.07949  -0.07468  -0.07227
 Alpha virt. eigenvalues --   -0.05938  -0.05677  -0.05440  -0.04837  -0.04404

 Mulliken charges:
               1
     1  P    0.520480
     2  P    0.298413
     3  O   -0.141180
     4  C   -0.037806
     5  C   -0.363834
     6  C   -0.380179
     7  C   -0.420696
     8  C   -0.383768
     9  C    0.050379
    10  C   -0.093489
    11  C   -0.098443
    12  C   -0.140128
    13  C   -0.088386
    14  H    0.135710
    15  H    0.147993
    16  H    0.138671
    17  H    0.136146
    18  H    0.226473
    19  H    0.126327
    20  H    0.162458
    21  H    0.156006
    22  H    0.161152
    23  H    0.139171
    24  H    0.153141
    25  H    0.143413
    26  H    0.158823
    27  Rh  -0.500951
    28  C   -0.024417
    29  C   -0.078257
    30  C   -0.024330
    31  C   -0.100233
    32  H    0.165414
    33  C   -0.357499
    34  H    0.175950
    35  C   -0.221249
    36  C   -0.359016
    37  H    0.199431
    38  H    0.172199
    39  C   -0.219626
    40  H    0.170412
    41  H    0.169402
    42  H    0.173035
    43  H    0.132303
    44  H    0.169273
    45  H    0.169104
    46  H    0.172638
    47  H    0.130183
    48  C   -0.081872
    49  H    0.137367
    50  C   -0.138925
    51  C   -0.308288
    52  C   -0.284339
    53  H    0.166721
    54  C   -0.251022
    55  H    0.133400
    56  H    0.152033
    57  C   -0.252304
    58  H    0.134325
    59  H    0.159794
    60  C   -0.220110
    61  H    0.142516
    62  H    0.123336
    63  H    0.144582
    64  H    0.121409
    65  H    0.147246
    66  H    0.111166
    67  C   -0.232455
    68  C   -0.306244
    69  C   -0.254191
    70  H    0.161945
    71  C   -0.248397
    72  H    0.146970
    73  H    0.144998
    74  C   -0.237208
    75  H    0.139694
    76  H    0.150186
    77  C   -0.227037
    78  H    0.148371
    79  H    0.120436
    80  H    0.150066
    81  H    0.117069
    82  H    0.150406
    83  H    0.117745
 Sum of Mulliken charges =   1.00000

 Dipole moment (field-independent basis, Debye):
    X=             -1.1287    Y=              1.3485    Z=             -0.3021  Tot=              1.7843
 Quadrupole moment (field-independent basis, Debye-Ang):
   XX=           -198.9093   YY=           -203.5804   ZZ=           -215.4288
   XY=              0.3508   XZ=             -1.2717   YZ=             -1.2447

 Summary of Natural Population Analysis:

                                       Natural Population
                Natural  -----------------------------------------------
    Atom  No    Charge         Core      Valence    Rydberg      Total
 -----------------------------------------------------------------------
      P    1    1.05196      9.99688     3.90482    0.04634    13.94804
      P    2    1.06386      9.99665     3.89052    0.04897    13.93614
      O    3   -0.46341      1.99976     6.44389    0.01975     8.46341
      C    4   -0.24673      1.99944     4.23026    0.01703     6.24673
      C    5   -0.60195      1.99935     4.59499    0.00761     6.60195
      C    6   -0.60811      1.99936     4.59952    0.00924     6.60811
      C    7   -0.60754      1.99935     4.60016    0.00803     6.60754
      C    8   -0.42734      1.99926     4.40122    0.02685     6.42734
      C    9    0.28606      1.99863     3.69172    0.02359     5.71394
      C   10   -0.40458      1.99888     4.38354    0.02216     6.40458
      C   11   -0.21944      1.99921     4.20526    0.01497     6.21944
      C   12   -0.24574      1.99905     4.23177    0.01493     6.24574
      C   13   -0.15722      1.99923     4.14354    0.01446     6.15722
      H   14    0.22552      0.00000     0.77332    0.00116     0.77448
      H   15    0.23564      0.00000     0.76284    0.00153     0.76436
      H   16    0.22539      0.00000     0.77352    0.00108     0.77461
      H   17    0.21466      0.00000     0.78386    0.00148     0.78534
      H   18    0.22999      0.00000     0.76616    0.00385     0.77001
      H   19    0.20527      0.00000     0.79322    0.00151     0.79473
      H   20    0.21936      0.00000     0.77905    0.00158     0.78064
      H   21    0.21624      0.00000     0.78230    0.00146     0.78376
      H   22    0.22478      0.00000     0.77343    0.00180     0.77522
      H   23    0.20880      0.00000     0.78970    0.00150     0.79120
      H   24    0.22417      0.00000     0.77407    0.00176     0.77583
      H   25    0.20468      0.00000     0.79384    0.00148     0.79532
      H   26    0.22615      0.00000     0.77206    0.00179     0.77385
     Rh   27   -0.36261     35.98545     9.35248    0.02468    45.36261
      C   28   -0.17686      1.99907     4.15797    0.01982     6.17686
      C   29   -0.15681      1.99908     4.13807    0.01966     6.15681
      C   30   -0.18531      1.99907     4.16639    0.01984     6.18531
      C   31   -0.15062      1.99908     4.13147    0.02007     6.15062
      H   32    0.21806      0.00000     0.77958    0.00235     0.78194
      C   33   -0.42456      1.99936     4.41310    0.01210     6.42456
      H   34    0.22285      0.00000     0.77530    0.00185     0.77715
      C   35   -0.41837      1.99935     4.40632    0.01270     6.41837
      C   36   -0.42391      1.99936     4.41261    0.01195     6.42391
      H   37    0.22825      0.00000     0.76959    0.00216     0.77175
      H   38    0.22014      0.00000     0.77726    0.00259     0.77986
      C   39   -0.41888      1.99935     4.40679    0.01273     6.41888
      H   40    0.21597      0.00000     0.78212    0.00191     0.78403
      H   41    0.22853      0.00000     0.77004    0.00143     0.77147
      H   42    0.23469      0.00000     0.76352    0.00179     0.76531
      H   43    0.21840      0.00000     0.78005    0.00155     0.78160
      H   44    0.22881      0.00000     0.76977    0.00142     0.77119
      H   45    0.21534      0.00000     0.78275    0.00191     0.78466
      H   46    0.23468      0.00000     0.76353    0.00179     0.76532
      H   47    0.21638      0.00000     0.78207    0.00155     0.78362
      C   48   -0.17207      1.99911     4.15614    0.01681     6.17207
      H   49    0.21523      0.00000     0.78279    0.00198     0.78477
      C   50   -0.45825      1.99933     4.43947    0.01945     6.45825
      C   51   -0.39222      1.99938     4.38199    0.01084     6.39222
      C   52   -0.39912      1.99938     4.38787    0.01187     6.39912
      H   53    0.22076      0.00000     0.77535    0.00389     0.77924
      C   54   -0.38433      1.99941     4.37506    0.00986     6.38433
      H   55    0.19993      0.00000     0.79781    0.00226     0.80007
      H   56    0.20411      0.00000     0.79375    0.00214     0.79589
      C   57   -0.38188      1.99942     4.37180    0.01067     6.38188
      H   58    0.19928      0.00000     0.79811    0.00260     0.80072
      H   59    0.21905      0.00000     0.77877    0.00218     0.78095
      C   60   -0.38899      1.99942     4.38003    0.00955     6.38899
      H   61    0.21391      0.00000     0.78470    0.00139     0.78609
      H   62    0.19489      0.00000     0.80328    0.00183     0.80511
      H   63    0.21501      0.00000     0.78357    0.00142     0.78499
      H   64    0.19407      0.00000     0.80413    0.00180     0.80593
      H   65    0.21551      0.00000     0.78315    0.00134     0.78449
      H   66    0.19190      0.00000     0.80634    0.00177     0.80810
      C   67   -0.45724      1.99936     4.44124    0.01664     6.45724
      C   68   -0.39189      1.99936     4.38182    0.01071     6.39189
      C   69   -0.39544      1.99937     4.38551    0.01056     6.39544
      H   70    0.21755      0.00000     0.77963    0.00282     0.78245
      C   71   -0.38268      1.99942     4.37358    0.00968     6.38268
      H   72    0.19646      0.00000     0.80116    0.00238     0.80354
      H   73    0.20325      0.00000     0.79502    0.00173     0.79675
      C   74   -0.38127      1.99942     4.37219    0.00966     6.38127
      H   75    0.19545      0.00000     0.80232    0.00223     0.80455
      H   76    0.20461      0.00000     0.79364    0.00175     0.79539
      C   77   -0.39004      1.99942     4.38106    0.00956     6.39004
      H   78    0.21599      0.00000     0.78262    0.00139     0.78401
      H   79    0.19275      0.00000     0.80539    0.00186     0.80725
      H   80    0.21728      0.00000     0.78133    0.00139     0.78272
      H   81    0.19230      0.00000     0.80585    0.00186     0.80770
      H   82    0.21717      0.00000     0.78149    0.00134     0.78283
      H   83    0.19432      0.00000     0.80388    0.00180     0.80568
 =======================================================================
   * Total *    1.00000    119.95603   195.37121    0.67276   316.00000

 Normal termination of Gaussian 16 at Wed Jan 22 22:21:32 2025.
