 Gaussian 16, Revision B.01,
 Gaussian 16:  ES64L-G16RevB.01 20-Dec-2017

 ------------------------------------------
 # nmr=giao b3lyp/genecp pop=nbo scfcyc=200
 ------------------------------------------

 ---------
 MS-86_SPE
 ---------
 Symbolic Z-matrix:
 Charge =  1 Multiplicity = 1

                         Standard orientation:
 ---------------------------------------------------------------------
 Center     Atomic      Atomic             Coordinates (Angstroms)
 Number     Number       Type             X           Y           Z
 ---------------------------------------------------------------------
      1         15           0       -0.018751    1.491520   -0.076579
      2         15           0        0.024870   -1.208050    0.705571
      3          6           0       -0.142440   -2.350490    2.235041
      4          6           0        0.351780   -1.572749    3.463141
      5          6           0       -1.593160   -2.798740    2.442671
      6          6           0        0.744780   -3.584589    2.000921
      7          6           0       -1.298750    0.154760    0.607891
      8          6           0       -0.514401    2.127000   -1.832009
      9          6           0       -2.067350   -1.443440   -0.950479
     10          6           0       -0.816940   -2.032260   -0.691789
     11          6           0       -1.988441    2.529570   -1.967649
     12          6           0       -0.230111    0.980080   -2.819549
     13          6           0       -0.067631    2.904550    1.263911
     14          6           0        1.186179    3.788901    1.141381
     15          6           0       -1.317931    3.786910    1.168241
     16          6           0       -0.016911    2.253820    2.659241
     17          6           0       -1.181230   -3.632820   -2.456069
     18          6           0       -2.874320   -1.973170   -1.959139
     19          6           0       -2.429250   -3.062230   -2.698279
     20          6           0        0.375429    3.327871   -2.198509
     21          1           0       -0.840710   -4.471940   -3.048399
     22          1           0       -3.833230   -1.528030   -2.178909
     23          1           0       -3.059510   -3.460830   -3.483389
     24          1           0        1.375380   -1.215619    3.339421
     25          1           0        1.325689    4.214521    0.150201
     26          1           0        2.085419    3.243041    1.420321
     27          1           0       -1.621850    0.522040    1.575911
     28          1           0       -0.283080   -0.713510    3.685921
     29          1           0       -1.993060   -3.315660    1.569661
     30          1           0        0.414210   -4.168999    1.141261
     31          1           0       -2.648031    1.700950   -1.725259
     32          1           0       -0.889060    0.128430   -2.662859
     33          1           0       -2.240351    3.210830    1.200711
     34          1           0        0.210609    3.568050   -3.252169
     35          1           0        1.439589    3.122181   -2.075899
     36          1           0        0.330650   -2.228139    4.337581
     37          1           0       -2.250430   -1.962860    2.683381
     38          1           0       -2.253191    3.382980   -1.347709
     39          1           0       -1.329581    4.469030    2.023181
     40          1           0        0.127319    4.219460   -1.624119
     41          1           0       -1.633670   -3.493930    3.285721
     42          1           0       -2.174051    2.815070   -3.007229
     43          1           0       -1.323471    4.401190    0.269021
     44          1           0        0.164229    3.039030    3.397571
     45          1           0       -0.953631    1.773290    2.941941
     46          1           0        0.793309    1.528101    2.744811
     47          1           0        1.795090   -3.324589    1.865551
     48          1           0        0.682780   -4.235279    2.877201
     49          1           0       -0.403671    1.347050   -3.834739
     50          1           0        0.798380    0.626411   -2.758649
     51          1           0        1.084929    4.623291    1.840471
     52         45           0        1.894370    0.014311    0.035881
     53          6           0        3.635660   -1.190699    0.846471
     54          6           0        3.204010   -1.781529   -0.325729
     55          6           0        3.435659    0.883771   -1.444999
     56          6           0        3.606429    1.507841   -0.231419
     57          1           0        3.242720   -1.596259    1.771771
     58          6           0        4.883360   -0.340419    1.000561
     59          1           0        2.546640   -2.638109   -0.229879
     60          6           0        3.812690   -1.632129   -1.696479
     61          6           0        4.318270   -0.211189   -2.010989
     62          1           0        2.810279    1.390481   -2.169949
     63          1           0        3.140749    2.476531   -0.113829
     64          6           0        4.629059    1.170311    0.823111
     65          1           0        5.646690   -0.681959    0.301621
     66          1           0        5.294910   -0.508219    1.997141
     67          1           0        4.628800   -2.354859   -1.821409
     68          1           0        3.051910   -1.911309   -2.428859
     69          1           0        4.366380   -0.090159   -3.094509
     70          1           0        5.337960   -0.080879   -1.649489
     71          1           0        5.573619    1.682451    0.601091
     72          1           0        4.281649    1.587861    1.770961
     73          6           0       -0.373300   -3.112170   -1.453549
     74          1           0        0.597180   -3.553689   -1.267459
     75          7           0       -2.444450   -0.337590   -0.141069
     76          6           0       -3.730100   -0.512240    0.607171
     77          1           0       -4.063350   -1.535350    0.423701
     78          1           0       -3.501990   -0.450720    1.675161
     79          6           0       -4.929890    0.429950    0.341511
     80          6           0       -4.611451    1.873820    0.744821
     81          1           0       -5.497861    2.503350    0.642791
     82          1           0       -4.288441    1.932010    1.788191
     83          1           0       -3.834141    2.301680    0.114821
     84          6           0       -6.070850   -0.091330    1.238191
     85          1           0       -6.962790    0.524939    1.112591
     86          1           0       -6.340830   -1.120010    0.987411
     87          1           0       -5.796260   -0.062620    2.295901
     88          6           0       -5.393360    0.386070   -1.120969
     89          1           0       -4.605890    0.695360   -1.809859
     90          1           0       -5.724620   -0.616280   -1.402619
     91          1           0       -6.240511    1.059080   -1.267739
 ---------------------------------------------------------------------

 SCF Done:  E(RB3LYP) =  -2100.91966012     A.U. after   16 cycles

      1  P    Isotropic =   236.4175   Anisotropy =    90.2248

      2  P    Isotropic =   262.3184   Anisotropy =   104.9000

      3  C    Isotropic =   135.8079   Anisotropy =    31.7685

      4  C    Isotropic =   155.6878   Anisotropy =    38.2492

      5  C    Isotropic =   155.9402   Anisotropy =    38.1893

      6  C    Isotropic =   159.6865   Anisotropy =    38.3623

      7  C    Isotropic =    86.4000   Anisotropy =    58.9013

      8  C    Isotropic =   131.6549   Anisotropy =    38.1122

      9  C    Isotropic =    16.0865   Anisotropy =   143.8472

     10  C    Isotropic =    55.0724   Anisotropy =   131.3713

     11  C    Isotropic =   154.5464   Anisotropy =    39.1580

     12  C    Isotropic =   150.8085   Anisotropy =    40.0861

     13  C    Isotropic =   130.0227   Anisotropy =    40.3768

     14  C    Isotropic =   152.1399   Anisotropy =    39.5067

     15  C    Isotropic =   155.0117   Anisotropy =    34.9753

     16  C    Isotropic =   150.3999   Anisotropy =    36.1915

     17  C    Isotropic =    54.5405   Anisotropy =   180.7944

     18  C    Isotropic =    59.6948   Anisotropy =   162.1415

     19  C    Isotropic =    44.3907   Anisotropy =   194.6322

     20  C    Isotropic =   153.4236   Anisotropy =    37.9631

     21  H    Isotropic =    24.4075   Anisotropy =     5.2388

     22  H    Isotropic =    24.3899   Anisotropy =     8.7683

     23  H    Isotropic =    24.0779   Anisotropy =     5.0655

     24  H    Isotropic =    30.5879   Anisotropy =     5.5639

     25  H    Isotropic =    30.2628   Anisotropy =     5.4169

     26  H    Isotropic =    30.3224   Anisotropy =     7.6227

     27  H    Isotropic =    26.3341   Anisotropy =     6.7294

     28  H    Isotropic =    30.7920   Anisotropy =     6.5393

     29  H    Isotropic =    31.3760   Anisotropy =     4.3164

     30  H    Isotropic =    30.6814   Anisotropy =     7.2982

     31  H    Isotropic =    29.4901   Anisotropy =    10.4586

     32  H    Isotropic =    31.4259   Anisotropy =    11.5328

     33  H    Isotropic =    30.0585   Anisotropy =    10.4003

     34  H    Isotropic =    30.9997   Anisotropy =    10.5103

     35  H    Isotropic =    31.1954   Anisotropy =     5.4601

     36  H    Isotropic =    30.7577   Anisotropy =    10.8875

     37  H    Isotropic =    31.0913   Anisotropy =     7.9052

     38  H    Isotropic =    30.2969   Anisotropy =     5.5277

     39  H    Isotropic =    30.7286   Anisotropy =    10.1829

     40  H    Isotropic =    30.5970   Anisotropy =     7.4041

     41  H    Isotropic =    30.9603   Anisotropy =    11.0494

     42  H    Isotropic =    30.9054   Anisotropy =     9.8078

     43  H    Isotropic =    30.2542   Anisotropy =     6.7322

     44  H    Isotropic =    30.6798   Anisotropy =     9.0954

     45  H    Isotropic =    30.4018   Anisotropy =     4.9023

     46  H    Isotropic =    29.9682   Anisotropy =     6.3507

     47  H    Isotropic =    31.1896   Anisotropy =     6.5346

     48  H    Isotropic =    31.0310   Anisotropy =    11.6029

     49  H    Isotropic =    31.4328   Anisotropy =     9.3579

     50  H    Isotropic =    30.5899   Anisotropy =     6.5687

     51  H    Isotropic =    30.7402   Anisotropy =    10.3490

     52  Rh   Isotropic =  -321.0814   Anisotropy =   351.8745

     53  C    Isotropic =    83.4584   Anisotropy =   117.2179

     54  C    Isotropic =    84.0616   Anisotropy =   107.8921

     55  C    Isotropic =    73.7547   Anisotropy =   130.0707

     56  C    Isotropic =    78.1520   Anisotropy =   118.2215

     57  H    Isotropic =    26.7661   Anisotropy =     6.4092

     58  C    Isotropic =   154.3670   Anisotropy =    25.6536

     59  H    Isotropic =    26.3275   Anisotropy =     4.2522

     60  C    Isotropic =   147.4673   Anisotropy =    30.2077

     61  C    Isotropic =   154.2742   Anisotropy =    26.0823

     62  H    Isotropic =    26.5848   Anisotropy =     4.9381

     63  H    Isotropic =    26.1980   Anisotropy =     3.8860

     64  C    Isotropic =   149.3003   Anisotropy =    27.9044

     65  H    Isotropic =    29.6759   Anisotropy =    10.0359

     66  H    Isotropic =    29.7489   Anisotropy =    11.6574

     67  H    Isotropic =    29.0571   Anisotropy =    12.9214

     68  H    Isotropic =    29.1373   Anisotropy =     6.9289

     69  H    Isotropic =    29.9039   Anisotropy =    11.4802

     70  H    Isotropic =    29.7517   Anisotropy =     9.9603

     71  H    Isotropic =    29.1651   Anisotropy =    13.0601

     72  H    Isotropic =    29.1105   Anisotropy =     7.1276

     73  C    Isotropic =    48.1494   Anisotropy =   181.4436

     74  H    Isotropic =    24.1161   Anisotropy =     8.6563

     75  N    Isotropic =   155.2532   Anisotropy =    59.6681

     76  C    Isotropic =    98.7121   Anisotropy =    71.0090

     77  H    Isotropic =    28.9643   Anisotropy =     8.0198

     78  H    Isotropic =    29.0758   Anisotropy =     9.4397

     79  C    Isotropic =   145.7576   Anisotropy =    14.8061

     80  C    Isotropic =   153.9677   Anisotropy =    40.1215

     81  H    Isotropic =    30.6697   Anisotropy =     9.0469

     82  H    Isotropic =    31.0679   Anisotropy =     6.3716

     83  H    Isotropic =    30.3319   Anisotropy =     9.3967

     84  C    Isotropic =   153.8470   Anisotropy =    51.3466

     85  H    Isotropic =    30.7911   Anisotropy =    10.9788

     86  H    Isotropic =    31.1488   Anisotropy =     9.5725

     87  H    Isotropic =    31.1441   Anisotropy =     8.8664

     88  C    Isotropic =   156.1560   Anisotropy =    35.0553

     89  H    Isotropic =    30.4101   Anisotropy =     4.5648

     90  H    Isotropic =    30.7869   Anisotropy =     9.0188

     91  H    Isotropic =    30.6902   Anisotropy =     9.8725

 The electronic state is 1-A.
 Alpha  occ. eigenvalues --  -77.22799 -77.22761 -14.44718 -10.33844 -10.32084
 Alpha  occ. eigenvalues --  -10.31335 -10.31023 -10.30934 -10.30260 -10.29072
 Alpha  occ. eigenvalues --  -10.29044 -10.29041 -10.28955 -10.28777 -10.28546
 Alpha  occ. eigenvalues --  -10.27821 -10.27725 -10.27529 -10.27524 -10.27497
 Alpha  occ. eigenvalues --  -10.27312 -10.27307 -10.27194 -10.27035 -10.26848
 Alpha  occ. eigenvalues --  -10.26840 -10.26653 -10.26536 -10.26496 -10.26432
 Alpha  occ. eigenvalues --  -10.25817 -10.25647 -10.24663 -10.24476 -10.24345
 Alpha  occ. eigenvalues --   -6.68824  -6.68666  -4.85102  -4.85012  -4.84973
 Alpha  occ. eigenvalues --   -4.84841  -4.84734  -4.84579  -3.31246  -2.08147
 Alpha  occ. eigenvalues --   -2.07486  -2.04655  -1.06118  -0.95721  -0.94551
 Alpha  occ. eigenvalues --   -0.93226  -0.92712  -0.91552  -0.91429  -0.89214
 Alpha  occ. eigenvalues --   -0.88104  -0.86875  -0.85057  -0.83222  -0.80503
 Alpha  occ. eigenvalues --   -0.79851  -0.79727  -0.79610  -0.79475  -0.79007
 Alpha  occ. eigenvalues --   -0.78647  -0.77956  -0.77854  -0.77719  -0.76820
 Alpha  occ. eigenvalues --   -0.74780  -0.72140  -0.70612  -0.70024  -0.68544
 Alpha  occ. eigenvalues --   -0.66096  -0.65761  -0.65228  -0.63809  -0.62767
 Alpha  occ. eigenvalues --   -0.62513  -0.60408  -0.60110  -0.59205  -0.58260
 Alpha  occ. eigenvalues --   -0.57732  -0.57470  -0.56677  -0.56246  -0.56058
 Alpha  occ. eigenvalues --   -0.55489  -0.55173  -0.55034  -0.54830  -0.54780
 Alpha  occ. eigenvalues --   -0.54230  -0.54075  -0.53790  -0.53720  -0.53429
 Alpha  occ. eigenvalues --   -0.53112  -0.52680  -0.52595  -0.51603  -0.50657
 Alpha  occ. eigenvalues --   -0.50352  -0.49909  -0.49524  -0.49422  -0.48989
 Alpha  occ. eigenvalues --   -0.48779  -0.48616  -0.48366  -0.48134  -0.47836
 Alpha  occ. eigenvalues --   -0.47644  -0.47613  -0.47412  -0.47128  -0.46817
 Alpha  occ. eigenvalues --   -0.46298  -0.46111  -0.46047  -0.45812  -0.45604
 Alpha  occ. eigenvalues --   -0.45467  -0.45077  -0.44833  -0.44730  -0.44370
 Alpha  occ. eigenvalues --   -0.44136  -0.43564  -0.43249  -0.42900  -0.42783
 Alpha  occ. eigenvalues --   -0.42644  -0.41845  -0.41554  -0.41269  -0.40410
 Alpha  occ. eigenvalues --   -0.40318  -0.37816  -0.37399  -0.36299  -0.35477
 Alpha  occ. eigenvalues --   -0.34728  -0.34231  -0.33389  -0.31574  -0.30309
 Alpha virt. eigenvalues --   -0.16107  -0.13961  -0.12635  -0.11360  -0.09666
 Alpha virt. eigenvalues --   -0.08801  -0.08452  -0.07431  -0.06864  -0.06573
 Alpha virt. eigenvalues --   -0.06014  -0.05712  -0.05047  -0.04716  -0.04392

 Mulliken charges:
               1
     1  P    0.405299
     2  P    0.201747
     3  C    0.041380
     4  C   -0.385700
     5  C   -0.373110
     6  C   -0.455339
     7  C   -0.484362
     8  C    0.032062
     9  C   -0.188550
    10  C    0.034775
    11  C   -0.428234
    12  C   -0.420018
    13  C    0.011771
    14  C   -0.467327
    15  C   -0.378916
    16  C   -0.458729
    17  C   -0.068914
    18  C   -0.099233
    19  C   -0.119115
    20  C   -0.439744
    21  H    0.127074
    22  H    0.146843
    23  H    0.129731
    24  H    0.134721
    25  H    0.163068
    26  H    0.152303
    27  H    0.209094
    28  H    0.134987
    29  H    0.156193
    30  H    0.156595
    31  H    0.169123
    32  H    0.180970
    33  H    0.134125
    34  H    0.156451
    35  H    0.147372
    36  H    0.158680
    37  H    0.123690
    38  H    0.148073
    39  H    0.150298
    40  H    0.150003
    41  H    0.154400
    42  H    0.148426
    43  H    0.146559
    44  H    0.162097
    45  H    0.136580
    46  H    0.166622
    47  H    0.153151
    48  H    0.160014
    49  H    0.154411
    50  H    0.120307
    51  H    0.155644
    52  Rh  -0.483920
    53  C   -0.001747
    54  C   -0.128009
    55  C   -0.037664
    56  C   -0.102754
    57  H    0.161405
    58  C   -0.345387
    59  H    0.200508
    60  C   -0.231284
    61  C   -0.349690
    62  H    0.171008
    63  H    0.203766
    64  C   -0.232321
    65  H    0.169506
    66  H    0.168487
    67  H    0.170623
    68  H    0.130594
    69  H    0.167961
    70  H    0.169241
    71  H    0.171836
    72  H    0.132671
    73  C   -0.062938
    74  H    0.125109
    75  N    0.040285
    76  C   -0.330453
    77  H    0.177369
    78  H    0.132691
    79  C    0.156009
    80  C   -0.401037
    81  H    0.147527
    82  H    0.121523
    83  H    0.119819
    84  C   -0.364556
    85  H    0.146127
    86  H    0.128896
    87  H    0.122306
    88  C   -0.428918
    89  H    0.137874
    90  H    0.130124
    91  H    0.150069
 Sum of Mulliken charges =   1.00000

 Dipole moment (field-independent basis, Debye):
    X=              0.8531    Y=              0.0952    Z=              0.7936  Tot=              1.1691
 Quadrupole moment (field-independent basis, Debye-Ang):
   XX=           -202.3848   YY=           -220.0696   ZZ=           -229.3227
   XY=             -0.7118   XZ=             -0.2939   YZ=              1.5199

 Summary of Natural Population Analysis:

                                       Natural Population
                Natural  -----------------------------------------------
    Atom  No    Charge         Core      Valence    Rydberg      Total
 -----------------------------------------------------------------------
      P    1    1.03542      9.99681     3.92199    0.04578    13.96458
      P    2    1.07521      9.99662     3.87925    0.04892    13.92479
      C    3   -0.25836      1.99942     4.24158    0.01736     6.25836
      C    4   -0.60068      1.99936     4.59355    0.00778     6.60068
      C    5   -0.60534      1.99935     4.59676    0.00922     6.60534
      C    6   -0.60542      1.99935     4.59793    0.00814     6.60542
      C    7   -0.52606      1.99927     4.50160    0.02519     6.52606
      C    8   -0.25970      1.99939     4.24247    0.01784     6.25970
      C    9    0.16489      1.99884     3.81574    0.02053     5.83511
      C   10   -0.38108      1.99890     4.35830    0.02388     6.38108
      C   11   -0.61353      1.99934     4.60402    0.01017     6.61353
      C   12   -0.59789      1.99935     4.58928    0.00927     6.59789
      C   13   -0.24514      1.99939     4.22826    0.01749     6.24514
      C   14   -0.60363      1.99935     4.59570    0.00859     6.60363
      C   15   -0.61205      1.99934     4.60229    0.01041     6.61205
      C   16   -0.60338      1.99935     4.59532    0.00871     6.60338
      C   17   -0.21547      1.99920     4.20122    0.01505     6.21547
      C   18   -0.23983      1.99905     4.22588    0.01490     6.23983
      C   19   -0.16257      1.99921     4.14883    0.01453     6.16257
      C   20   -0.60284      1.99935     4.59516    0.00833     6.60284
      H   21    0.22372      0.00000     0.77511    0.00117     0.77628
      H   22    0.22762      0.00000     0.77028    0.00211     0.77238
      H   23    0.22308      0.00000     0.77579    0.00113     0.77692
      H   24    0.21348      0.00000     0.78500    0.00153     0.78652
      H   25    0.21239      0.00000     0.78595    0.00166     0.78761
      H   26    0.21038      0.00000     0.78785    0.00177     0.78962
      H   27    0.23911      0.00000     0.75650    0.00439     0.76089
      H   28    0.20625      0.00000     0.79206    0.00169     0.79375
      H   29    0.21718      0.00000     0.78117    0.00165     0.78282
      H   30    0.21519      0.00000     0.78330    0.00151     0.78481
      H   31    0.22093      0.00000     0.77678    0.00228     0.77907
      H   32    0.21863      0.00000     0.77932    0.00205     0.78137
      H   33    0.21101      0.00000     0.78689    0.00210     0.78899
      H   34    0.22401      0.00000     0.77410    0.00190     0.77599
      H   35    0.20629      0.00000     0.79208    0.00163     0.79371
      H   36    0.22333      0.00000     0.77488    0.00179     0.77667
      H   37    0.20296      0.00000     0.79538    0.00166     0.79704
      H   38    0.20857      0.00000     0.78977    0.00165     0.79143
      H   39    0.22037      0.00000     0.77778    0.00185     0.77963
      H   40    0.20790      0.00000     0.79031    0.00179     0.79210
      H   41    0.22300      0.00000     0.77522    0.00178     0.77700
      H   42    0.21790      0.00000     0.78030    0.00180     0.78210
      H   43    0.20858      0.00000     0.78963    0.00179     0.79142
      H   44    0.22549      0.00000     0.77266    0.00185     0.77451
      H   45    0.19823      0.00000     0.80025    0.00152     0.80177
      H   46    0.21950      0.00000     0.77898    0.00152     0.78050
      H   47    0.20731      0.00000     0.79107    0.00162     0.79269
      H   48    0.22519      0.00000     0.77297    0.00184     0.77481
      H   49    0.21806      0.00000     0.78006    0.00188     0.78194
      H   50    0.21533      0.00000     0.78302    0.00165     0.78467
      H   51    0.22098      0.00000     0.77715    0.00187     0.77902
     Rh   52   -0.35109     35.98593     9.33641    0.02874    45.35109
      C   53   -0.18089      1.99909     4.16207    0.01972     6.18089
      C   54   -0.17139      1.99910     4.15284    0.01945     6.17139
      C   55   -0.16745      1.99908     4.14834    0.02002     6.16745
      C   56   -0.18276      1.99910     4.16366    0.02000     6.18276
      H   57    0.21899      0.00000     0.77862    0.00239     0.78101
      C   58   -0.42170      1.99935     4.41036    0.01199     6.42170
      H   59    0.21597      0.00000     0.78184    0.00219     0.78403
      C   60   -0.41560      1.99934     4.40356    0.01269     6.41560
      C   61   -0.42518      1.99935     4.41377    0.01206     6.42518
      H   62    0.22027      0.00000     0.77744    0.00228     0.77973
      H   63    0.22495      0.00000     0.77291    0.00214     0.77505
      C   64   -0.41659      1.99934     4.40444    0.01281     6.41659
      H   65    0.21579      0.00000     0.78227    0.00194     0.78421
      H   66    0.22807      0.00000     0.77043    0.00149     0.77193
      H   67    0.23186      0.00000     0.76624    0.00190     0.76814
      H   68    0.21804      0.00000     0.78017    0.00179     0.78196
      H   69    0.22895      0.00000     0.76958    0.00147     0.77105
      H   70    0.21615      0.00000     0.78193    0.00192     0.78385
      H   71    0.23300      0.00000     0.76511    0.00188     0.76700
      H   72    0.21550      0.00000     0.78261    0.00189     0.78450
      C   73   -0.17530      1.99910     4.15943    0.01677     6.17530
      H   74    0.21205      0.00000     0.78587    0.00208     0.78795
      N   75   -0.45125      1.99941     5.42428    0.02756     7.45125
      C   76   -0.19471      1.99917     4.18093    0.01461     6.19471
      H   77    0.20673      0.00000     0.79038    0.00288     0.79327
      H   78    0.18562      0.00000     0.81085    0.00352     0.81438
      C   79   -0.05227      1.99945     4.04068    0.01215     6.05227
      C   80   -0.59989      1.99938     4.59152    0.00900     6.59989
      H   81    0.21752      0.00000     0.78113    0.00135     0.78248
      H   82    0.19812      0.00000     0.80042    0.00145     0.80188
      H   83    0.20163      0.00000     0.79637    0.00201     0.79837
      C   84   -0.59064      1.99938     4.58331    0.00794     6.59064
      H   85    0.21699      0.00000     0.78175    0.00126     0.78301
      H   86    0.20657      0.00000     0.79207    0.00136     0.79343
      H   87    0.20372      0.00000     0.79491    0.00137     0.79628
      C   88   -0.59791      1.99937     4.59034    0.00820     6.59791
      H   89    0.20338      0.00000     0.79533    0.00129     0.79662
      H   90    0.20314      0.00000     0.79541    0.00144     0.79686
      H   91    0.21710      0.00000     0.78161    0.00129     0.78290
 =======================================================================
   * Total *    1.00000    121.95523   205.34794    0.69683   328.00000

 Normal termination of Gaussian 16 at Wed Jan 22 22:23:08 2025.
