 Gaussian 16, Revision B.01,
 Gaussian 16:  ES64L-G16RevB.01 20-Dec-2017

 ------------------------------------------
 # nmr=giao b3lyp/genecp pop=nbo scfcyc=200
 ------------------------------------------

 --------
 MS-9_SPE
 --------
 Symbolic Z-matrix:
 Charge =  1 Multiplicity = 1

                         Standard orientation:
 ---------------------------------------------------------------------
 Center     Atomic      Atomic             Coordinates (Angstroms)
 Number     Number       Type             X           Y           Z
 ---------------------------------------------------------------------
      1         15           0       -0.950652   -0.849057   -0.071740
      2         15           0        1.403750    0.065858   -1.258000
      3          6           0        0.175317   -1.353650   -1.513450
      4          1           0        0.601645   -2.332830   -1.306280
      5         45           0        0.064332    1.255901    0.277070
      6          6           0        1.370056    3.008908    0.934940
      7          6           0        0.806277    3.314659   -0.285580
      8          6           0       -1.711795    2.518654    0.960000
      9          6           0       -1.112656    1.965633    2.071370
     10          1           0        2.371095    2.591616    0.916710
     11          6           0        0.906787    3.539859    2.278680
     12          1           0        1.422466    3.157068   -1.164420
     13          6           0       -0.420472    4.157422   -0.531390
     14          6           0       -1.554202    3.954804    0.495650
     15          1           0       -2.563696    1.986576    0.552290
     16          1           0       -1.570638    1.067964    2.474060
     17          6           0       -0.117295    2.629021    2.990310
     18          1           0        0.499619    4.543010    2.154660
     19          1           0        1.778527    3.649467    2.925750
     20          1           0       -0.137999    5.217041   -0.567920
     21          1           0       -0.794152    3.916532   -1.529040
     22          1           0       -2.493351    4.275246    0.041590
     23          1           0       -1.403881    4.602364    1.359130
     24          1           0       -0.648983    3.201732    3.760340
     25          1           0        0.418594    1.841950    3.526240
     26          6           0       -0.321663   -1.248249   -2.970120
     27          1           0        0.235746   -1.976470   -3.564750
     28          1           0       -1.376093   -1.513766   -3.059680
     29          6           0       -0.048340    0.163671   -3.518750
     30          1           0       -0.797798    0.866742   -3.149180
     31          1           0       -0.109690    0.177721   -4.608130
     32          6           0        1.343981    0.601978   -3.043410
     33          1           0        1.510453    1.673768   -3.138990
     34          1           0        2.131260    0.089596   -3.598740
     35          6           0        3.071999   -0.598376   -0.879280
     36          6           0        3.610289   -0.373087    0.390500
     37          6           0        3.801457   -1.348787   -1.808880
     38          6           0        4.860338   -0.883669    0.724910
     39          1           0        3.046860    0.196194    1.119240
     40          6           0        5.049566   -1.856490   -1.471430
     41          1           0        3.405177   -1.545966   -2.797280
     42          6           0        5.581396   -1.622811   -0.205660
     43          1           0        5.269838   -0.702720    1.710700
     44          1           0        5.608405   -2.434061   -2.196940
     45          1           0        6.555796   -2.017783    0.052550
     46          6           0       -2.723462   -1.002924   -0.560150
     47          6           0       -3.552044   -2.025462   -0.089130
     48          6           0       -3.262790   -0.029812   -1.411130
     49          6           0       -4.886825   -2.081219   -0.478700
     50          1           0       -3.167516   -2.775443    0.587670
     51          6           0       -4.593300   -0.095360   -1.805820
     52          1           0       -2.645099    0.788936   -1.759400
     53          6           0       -5.408503   -1.122758   -1.339940
     54          1           0       -5.519086   -2.876148   -0.103610
     55          1           0       -4.995899    0.660311   -2.468730
     56          1           0       -6.447343   -1.170496   -1.640940
     57          6           0       -0.630175   -2.165688    1.177820
     58          6           0       -0.347624   -1.814948    2.499660
     59          6           0       -0.651698   -3.520428    0.823490
     60          6           0       -0.103106   -2.798329    3.453630
     61          1           0       -0.305222   -0.772289    2.783590
     62          6           0       -0.406810   -4.500298    1.777300
     63          1           0       -0.863828   -3.820117   -0.195870
     64          6           0       -0.133549   -4.140469    3.094530
     65          1           0        0.115845   -2.513829    4.475110
     66          1           0       -0.428092   -5.544658    1.492240
     67          1           0        0.058670   -4.905579    3.836030
 ---------------------------------------------------------------------

 SCF Done:  E(RB3LYP) =  -1957.25703808     A.U. after   16 cycles

      1  P    Isotropic =   312.8779   Anisotropy =   125.2789

      2  P    Isotropic =   298.8107   Anisotropy =   106.8248

      3  C    Isotropic =   107.6194   Anisotropy =    49.5802

      4  H    Isotropic =    27.9610   Anisotropy =     5.3059

      5  Rh   Isotropic =  -308.1090   Anisotropy =   364.4360

      6  C    Isotropic =    78.7031   Anisotropy =   121.4519

      7  C    Isotropic =    74.3858   Anisotropy =   119.3260

      8  C    Isotropic =    73.8517   Anisotropy =   128.8614

      9  C    Isotropic =    77.6992   Anisotropy =   114.8569

     10  H    Isotropic =    26.7354   Anisotropy =     7.3641

     11  C    Isotropic =   154.2691   Anisotropy =    24.8939

     12  H    Isotropic =    26.4215   Anisotropy =     4.5578

     13  C    Isotropic =   147.0950   Anisotropy =    29.2597

     14  C    Isotropic =   153.9102   Anisotropy =    25.3311

     15  H    Isotropic =    26.8818   Anisotropy =     5.2613

     16  H    Isotropic =    26.4211   Anisotropy =     4.7783

     17  C    Isotropic =   148.1878   Anisotropy =    29.3242

     18  H    Isotropic =    29.6639   Anisotropy =     9.4736

     19  H    Isotropic =    29.6758   Anisotropy =    11.9142

     20  H    Isotropic =    28.9748   Anisotropy =    12.5905

     21  H    Isotropic =    28.9394   Anisotropy =     7.4471

     22  H    Isotropic =    29.7832   Anisotropy =    11.1879

     23  H    Isotropic =    29.6890   Anisotropy =     9.4994

     24  H    Isotropic =    28.9518   Anisotropy =    12.5999

     25  H    Isotropic =    28.8276   Anisotropy =     8.5660

     26  C    Isotropic =   150.3125   Anisotropy =    23.3322

     27  H    Isotropic =    29.7370   Anisotropy =    12.7388

     28  H    Isotropic =    29.7330   Anisotropy =     6.5447

     29  C    Isotropic =   152.1891   Anisotropy =    21.3314

     30  H    Isotropic =    29.0143   Anisotropy =     6.6985

     31  H    Isotropic =    29.3674   Anisotropy =    12.3551

     32  C    Isotropic =   149.2457   Anisotropy =    29.5065

     33  H    Isotropic =    29.2576   Anisotropy =     7.2497

     34  H    Isotropic =    29.4520   Anisotropy =    11.3764

     35  C    Isotropic =    47.2365   Anisotropy =   171.2082

     36  C    Isotropic =    43.1957   Anisotropy =   177.4434

     37  C    Isotropic =    49.9602   Anisotropy =   184.8017

     38  C    Isotropic =    49.2684   Anisotropy =   188.3387

     39  H    Isotropic =    24.0557   Anisotropy =    10.4501

     40  C    Isotropic =    48.2951   Anisotropy =   190.8109

     41  H    Isotropic =    24.4100   Anisotropy =    12.4792

     42  C    Isotropic =    44.7937   Anisotropy =   198.8808

     43  H    Isotropic =    24.3322   Anisotropy =     7.1105

     44  H    Isotropic =    24.2182   Anisotropy =     5.8285

     45  H    Isotropic =    24.1365   Anisotropy =     4.0849

     46  C    Isotropic =    50.1476   Anisotropy =   166.5347

     47  C    Isotropic =    45.9700   Anisotropy =   192.3030

     48  C    Isotropic =    45.9312   Anisotropy =   183.2224

     49  C    Isotropic =    48.0388   Anisotropy =   190.4963

     50  H    Isotropic =    24.7707   Anisotropy =    13.1873

     51  C    Isotropic =    49.6510   Anisotropy =   187.5350

     52  H    Isotropic =    23.8793   Anisotropy =     9.5322

     53  C    Isotropic =    45.6144   Anisotropy =   196.7336

     54  H    Isotropic =    24.2768   Anisotropy =     6.6023

     55  H    Isotropic =    24.0379   Anisotropy =     7.2364

     56  H    Isotropic =    24.0840   Anisotropy =     4.0031

     57  C    Isotropic =    46.1424   Anisotropy =   172.7014

     58  C    Isotropic =    42.4387   Anisotropy =   179.5688

     59  C    Isotropic =    45.9804   Anisotropy =   188.0492

     60  C    Isotropic =    48.7697   Anisotropy =   188.9412

     61  H    Isotropic =    23.6046   Anisotropy =    10.1301

     62  C    Isotropic =    48.3259   Anisotropy =   190.7788

     63  H    Isotropic =    24.3563   Anisotropy =    11.3502

     64  C    Isotropic =    44.8395   Anisotropy =   199.2058

     65  H    Isotropic =    24.0494   Anisotropy =     6.7807

     66  H    Isotropic =    24.1138   Anisotropy =     5.6641

     67  H    Isotropic =    24.0188   Anisotropy =     3.7188

 The electronic state is 1-A.
 Alpha  occ. eigenvalues --  -77.23834 -77.23280 -10.30639 -10.29885 -10.29874
 Alpha  occ. eigenvalues --  -10.29840 -10.29597 -10.29468 -10.29367 -10.29291
 Alpha  occ. eigenvalues --  -10.29240 -10.28842 -10.28752 -10.28734 -10.28663
 Alpha  occ. eigenvalues --  -10.28618 -10.28572 -10.28560 -10.28286 -10.27982
 Alpha  occ. eigenvalues --  -10.27970 -10.27932 -10.27917 -10.27853 -10.27849
 Alpha  occ. eigenvalues --  -10.27819 -10.27798 -10.27740 -10.27698 -10.27678
 Alpha  occ. eigenvalues --  -10.27656 -10.27598  -6.69792  -6.69350  -4.86059
 Alpha  occ. eigenvalues --   -4.86026  -4.85701  -4.85622  -4.85558  -4.85253
 Alpha  occ. eigenvalues --   -3.31932  -2.08828  -2.08149  -2.05391  -0.97118
 Alpha  occ. eigenvalues --   -0.96738  -0.96364  -0.94864  -0.94124  -0.89599
 Alpha  occ. eigenvalues --   -0.88409  -0.88100  -0.86478  -0.85671  -0.85549
 Alpha  occ. eigenvalues --   -0.85525  -0.85152  -0.83989  -0.80900  -0.80374
 Alpha  occ. eigenvalues --   -0.78235  -0.75521  -0.71927  -0.71620  -0.71286
 Alpha  occ. eigenvalues --   -0.71096  -0.70954  -0.70587  -0.69450  -0.67066
 Alpha  occ. eigenvalues --   -0.66270  -0.65676  -0.62911  -0.62860  -0.62071
 Alpha  occ. eigenvalues --   -0.61123  -0.60487  -0.58770  -0.58293  -0.57387
 Alpha  occ. eigenvalues --   -0.56684  -0.56488  -0.56286  -0.56208  -0.55890
 Alpha  occ. eigenvalues --   -0.55531  -0.54997  -0.54075  -0.53803  -0.53302
 Alpha  occ. eigenvalues --   -0.53130  -0.53016  -0.52920  -0.52781  -0.52268
 Alpha  occ. eigenvalues --   -0.51625  -0.49291  -0.48764  -0.48614  -0.48432
 Alpha  occ. eigenvalues --   -0.48247  -0.47939  -0.47290  -0.46801  -0.46521
 Alpha  occ. eigenvalues --   -0.46418  -0.46311  -0.45825  -0.45505  -0.45331
 Alpha  occ. eigenvalues --   -0.45052  -0.44164  -0.43680  -0.43474  -0.43456
 Alpha  occ. eigenvalues --   -0.42649  -0.42339  -0.41494  -0.37963  -0.37246
 Alpha  occ. eigenvalues --   -0.36675  -0.36407  -0.36238  -0.36093  -0.35901
 Alpha  occ. eigenvalues --   -0.35832  -0.35137  -0.34950  -0.34195  -0.31194
 Alpha virt. eigenvalues --   -0.16819  -0.14744  -0.14189  -0.13457  -0.12455
 Alpha virt. eigenvalues --   -0.12095  -0.11696  -0.11296  -0.09770  -0.08314
 Alpha virt. eigenvalues --   -0.07511  -0.06963  -0.06742  -0.05731  -0.05527

 Mulliken charges:
               1
     1  P    0.284255
     2  P    0.325656
     3  C   -0.455002
     4  H    0.259760
     5  Rh  -0.546420
     6  C   -0.012282
     7  C   -0.106199
     8  C   -0.028801
     9  C   -0.097688
    10  H    0.182719
    11  C   -0.340394
    12  H    0.175535
    13  C   -0.216630
    14  C   -0.352562
    15  H    0.214030
    16  H    0.185344
    17  C   -0.233871
    18  H    0.167228
    19  H    0.171088
    20  H    0.173367
    21  H    0.128033
    22  H    0.169613
    23  H    0.168460
    24  H    0.175224
    25  H    0.131782
    26  C   -0.274212
    27  H    0.157713
    28  H    0.191602
    29  C   -0.240992
    30  H    0.121124
    31  H    0.174320
    32  C   -0.375948
    33  H    0.181722
    34  H    0.169913
    35  C   -0.133131
    36  C   -0.022183
    37  C   -0.070845
    38  C   -0.115509
    39  H    0.157048
    40  C   -0.099039
    41  H    0.136922
    42  C   -0.091155
    43  H    0.132046
    44  H    0.136208
    45  H    0.141889
    46  C   -0.203637
    47  C   -0.021283
    48  C   -0.075304
    49  C   -0.109350
    50  H    0.173926
    51  C   -0.104611
    52  H    0.160500
    53  C   -0.087487
    54  H    0.135523
    55  H    0.133012
    56  H    0.139757
    57  C   -0.231955
    58  C   -0.014782
    59  C   -0.116360
    60  C   -0.123066
    61  H    0.146223
    62  C   -0.075754
    63  H    0.157306
    64  C   -0.091257
    65  H    0.130415
    66  H    0.136803
    67  H    0.141643
 Sum of Mulliken charges =   1.00000

 Dipole moment (field-independent basis, Debye):
    X=              0.4835    Y=             -0.4074    Z=             -0.9101  Tot=              1.1081
 Quadrupole moment (field-independent basis, Debye-Ang):
   XX=           -176.0233   YY=           -179.3680   ZZ=           -188.4575
   XY=             -3.4569   XZ=              3.1584   YZ=             -0.1007

 Summary of Natural Population Analysis:

                                       Natural Population
                Natural  -----------------------------------------------
    Atom  No    Charge         Core      Valence    Rydberg      Total
 -----------------------------------------------------------------------
      P    1    1.11052      9.99645     3.84165    0.05139    13.88948
      P    2    1.08786      9.99668     3.86669    0.04878    13.91214
      C    3   -0.73234      1.99942     4.71437    0.01855     6.73234
      H    4    0.25604      0.00000     0.74211    0.00185     0.74396
     Rh    5   -0.40772     35.98624     9.39715    0.02434    45.40772
      C    6   -0.17968      1.99907     4.16080    0.01981     6.17968
      C    7   -0.15359      1.99908     4.13448    0.02003     6.15359
      C    8   -0.15883      1.99907     4.14013    0.01963     6.15883
      C    9   -0.17387      1.99907     4.15514    0.01966     6.17387
      H   10    0.22704      0.00000     0.77091    0.00205     0.77296
      C   11   -0.42317      1.99936     4.41194    0.01187     6.42317
      H   12    0.22093      0.00000     0.77699    0.00208     0.77907
      C   13   -0.41807      1.99935     4.40601    0.01271     6.41807
      C   14   -0.42516      1.99936     4.41382    0.01198     6.42516
      H   15    0.23089      0.00000     0.76693    0.00217     0.76911
      H   16    0.22527      0.00000     0.77283    0.00190     0.77473
      C   17   -0.41827      1.99935     4.40617    0.01274     6.41827
      H   18    0.21557      0.00000     0.78251    0.00191     0.78443
      H   19    0.22929      0.00000     0.76929    0.00142     0.77071
      H   20    0.23462      0.00000     0.76357    0.00181     0.76538
      H   21    0.21420      0.00000     0.78426    0.00153     0.78580
      H   22    0.22901      0.00000     0.76960    0.00140     0.77099
      H   23    0.21579      0.00000     0.78231    0.00190     0.78421
      H   24    0.23502      0.00000     0.76315    0.00183     0.76498
      H   25    0.21372      0.00000     0.78466    0.00162     0.78628
      C   26   -0.40828      1.99939     4.39651    0.01239     6.40828
      H   27    0.21837      0.00000     0.77985    0.00178     0.78163
      H   28    0.23073      0.00000     0.76725    0.00202     0.76927
      C   29   -0.39331      1.99943     4.38446    0.00942     6.39331
      H   30    0.20450      0.00000     0.79385    0.00165     0.79550
      H   31    0.23095      0.00000     0.76764    0.00141     0.76905
      C   32   -0.66073      1.99940     4.64910    0.01223     6.66073
      H   33    0.23972      0.00000     0.75896    0.00132     0.76028
      H   34    0.23094      0.00000     0.76712    0.00194     0.76906
      C   35   -0.35178      1.99901     4.33060    0.02217     6.35178
      C   36   -0.17765      1.99910     4.16357    0.01497     6.17765
      C   37   -0.18759      1.99910     4.17282    0.01568     6.18759
      C   38   -0.19344      1.99920     4.17971    0.01453     6.19344
      H   39    0.21885      0.00000     0.77933    0.00182     0.78115
      C   40   -0.18943      1.99920     4.17564    0.01459     6.18943
      H   41    0.20755      0.00000     0.79003    0.00242     0.79245
      C   42   -0.17247      1.99921     4.15874    0.01453     6.17247
      H   43    0.22192      0.00000     0.77686    0.00122     0.77808
      H   44    0.22360      0.00000     0.77517    0.00123     0.77640
      H   45    0.22381      0.00000     0.77503    0.00117     0.77619
      C   46   -0.34796      1.99898     4.32460    0.02439     6.34796
      C   47   -0.18901      1.99910     4.17430    0.01562     6.18901
      C   48   -0.20002      1.99909     4.18540    0.01552     6.20002
      C   49   -0.18881      1.99920     4.17505    0.01455     6.18881
      H   50    0.22467      0.00000     0.77351    0.00182     0.77533
      C   51   -0.19583      1.99919     4.18191    0.01472     6.19583
      H   52    0.21318      0.00000     0.78467    0.00215     0.78682
      C   53   -0.17636      1.99920     4.16253    0.01463     6.17636
      H   54    0.22354      0.00000     0.77524    0.00122     0.77646
      H   55    0.22135      0.00000     0.77741    0.00124     0.77865
      H   56    0.22374      0.00000     0.77509    0.00117     0.77626
      C   57   -0.34047      1.99899     4.31755    0.02393     6.34047
      C   58   -0.17910      1.99910     4.16444    0.01556     6.17910
      C   59   -0.20066      1.99909     4.18574    0.01582     6.20066
      C   60   -0.19367      1.99920     4.18002    0.01445     6.19367
      H   61    0.21572      0.00000     0.78214    0.00214     0.78428
      C   62   -0.19179      1.99920     4.17793    0.01466     6.19179
      H   63    0.21415      0.00000     0.78384    0.00201     0.78585
      C   64   -0.17346      1.99921     4.15978    0.01448     6.17346
      H   65    0.22184      0.00000     0.77694    0.00123     0.77816
      H   66    0.22376      0.00000     0.77500    0.00124     0.77624
      H   67    0.22388      0.00000     0.77495    0.00117     0.77612
 =======================================================================
   * Total *    1.00000    115.95508   171.38773    0.65719   288.00000

 Normal termination of Gaussian 16 at Wed Jan 22 02:28:01 2025.
