 Gaussian 16, Revision B.01,
 Gaussian 16:  ES64L-G16RevB.01 20-Dec-2017

 ------------------------------------------
 # nmr=giao b3lyp/genecp pop=nbo scfcyc=200
 ------------------------------------------

 ---------
 MS-90_SPE
 ---------
 Symbolic Z-matrix:
 Charge =  1 Multiplicity = 1

                         Standard orientation:
 ---------------------------------------------------------------------
 Center     Atomic      Atomic             Coordinates (Angstroms)
 Number     Number       Type             X           Y           Z
 ---------------------------------------------------------------------
      1         15           0       -1.387950    0.259500    0.396099
      2          6           0       -2.059761    1.690940   -0.542761
      3          6           0       -1.494551    2.967670   -0.483461
      4          6           0       -2.003802    3.991410   -1.277431
      5          6           0       -3.073451    3.754959   -2.132461
      6          6           0       -3.639111    2.484229   -2.197501
      7          6           0       -3.132630    1.456239   -1.413531
      8          1           0       -3.588790    0.475159   -1.471971
      9          1           0       -4.474341    2.292869   -2.859471
     10          1           0       -3.467832    4.555859   -2.745051
     11          1           0       -1.561732    4.978190   -1.220751
     12          1           0       -0.666671    3.167620    0.182869
     13          6           0       -2.762460   -0.385491    1.445979
     14          6           0       -2.584049   -1.630211    2.060389
     15          6           0       -3.569509   -2.154241    2.888529
     16          6           0       -4.750679   -1.448811    3.097699
     17          6           0       -4.939690   -0.216732    2.480449
     18          6           0       -3.951410    0.316419    1.659579
     19          1           0       -4.112700    1.277549    1.190149
     20          1           0       -5.858010    0.334728    2.638599
     21          1           0       -5.522289   -1.859692    3.736389
     22          1           0       -3.419599   -3.116431    3.362059
     23          1           0       -1.673989   -2.193000    1.887359
     24          6           0        0.014620    0.790470    1.573479
     25         15           0        1.393260    0.305971    0.343369
     26          6           0        1.903189    1.790481   -0.612921
     27          6           0        1.739989    1.768391   -2.001511
     28          6           0        2.109239    2.864601   -2.773601
     29          6           0        2.641348    3.995412   -2.165371
     30          6           0        2.804028    4.028412   -0.782791
     31          6           0        2.438839    2.934391   -0.008161
     32          1           0        2.576419    2.979742    1.062279
     33          1           0        3.217688    4.908042   -0.305641
     34          1           0        2.930648    4.849362   -2.765041
     35          1           0        1.979739    2.834031   -3.848081
     36          1           0        1.313700    0.893141   -2.475061
     37          6           0        2.872100   -0.261948    1.287779
     38          6           0        4.160990    0.159892    0.949759
     39          6           0        5.264930   -0.347547    1.629399
     40          6           0        5.095751   -1.278687    2.647079
     41          6           0        3.815491   -1.713978    2.979599
     42          6           0        2.711461   -1.218358    2.298119
     43          1           0        1.725141   -1.583529    2.558159
     44          1           0        3.677261   -2.445108    3.766269
     45          1           0        5.956041   -1.668707    3.175969
     46          1           0        6.258120   -0.010507    1.360369
     47          1           0        4.310530    0.885982    0.162359
     48          1           0        0.011260   -0.077210    2.261789
     49         45           0        0.017401   -1.205720   -0.807111
     50          6           0       -1.421519   -2.924300   -1.307791
     51          6           0       -1.419049   -2.020760   -2.347321
     52          6           0        1.494041   -2.224479   -2.214971
     53          6           0        1.485371   -2.892659   -1.007031
     54          6           0       -0.681028   -4.248300   -1.291161
     55          1           0       -2.205769   -2.816400   -0.567301
     56          1           0       -2.215839   -1.284540   -2.365871
     57          6           0       -0.638059   -2.119160   -3.634701
     58          6           0        0.792591   -2.680119   -3.481101
     59          1           0        2.274261   -1.483699   -2.354331
     60          6           0        0.734012   -4.159929   -0.680531
     61          1           0        2.271101   -2.645879   -0.300931
     62          1           0       -1.264498   -4.964170   -0.709701
     63          1           0       -0.633668   -4.653260   -2.301801
     64          1           0       -1.197549   -2.724730   -4.358681
     65          1           0       -0.585509   -1.117010   -4.065981
     66          1           0        0.779682   -3.769199   -3.521351
     67          1           0        1.382691   -2.357249   -4.340361
     68          1           0        0.659582   -4.229139    0.407019
     69          1           0        1.327392   -5.028449   -0.993211
     70          6           0       -1.228961    2.393230    2.928549
     71          1           0       -1.536631    1.658980    3.687729
     72          1           0       -1.117131    3.362140    3.415409
     73          1           0       -2.021631    2.484140    2.190309
     74          6           0        1.120479    2.079761    3.281149
     75          1           0        2.082349    1.857181    2.824539
     76          1           0        1.171109    3.077471    3.717359
     77          1           0        0.959850    1.353951    4.093979
     78          7           0        0.043489    2.047130    2.286999
 ---------------------------------------------------------------------

 SCF Done:  E(RB3LYP) =  -2205.60410907     A.U. after   16 cycles

      1  P    Isotropic =   285.4637   Anisotropy =    68.8586

      2  C    Isotropic =    49.1991   Anisotropy =   158.6607

      3  C    Isotropic =    46.6059   Anisotropy =   193.6978

      4  C    Isotropic =    49.1573   Anisotropy =   191.4019

      5  C    Isotropic =    46.6001   Anisotropy =   196.4991

      6  C    Isotropic =    49.9176   Anisotropy =   189.2944

      7  C    Isotropic =    46.7414   Anisotropy =   187.5410

      8  H    Isotropic =    24.5741   Anisotropy =    10.7488

      9  H    Isotropic =    24.2179   Anisotropy =     5.9080

     10  H    Isotropic =    24.2506   Anisotropy =     3.7519

     11  H    Isotropic =    24.7827   Anisotropy =     7.5854

     12  H    Isotropic =    24.2683   Anisotropy =     7.9491

     13  C    Isotropic =    44.0300   Anisotropy =   172.8967

     14  C    Isotropic =    44.9751   Anisotropy =   182.4087

     15  C    Isotropic =    48.8053   Anisotropy =   188.0946

     16  C    Isotropic =    45.2145   Anisotropy =   196.1914

     17  C    Isotropic =    48.8559   Anisotropy =   189.0049

     18  C    Isotropic =    46.2212   Anisotropy =   192.7109

     19  H    Isotropic =    24.6042   Anisotropy =    12.8007

     20  H    Isotropic =    24.3227   Anisotropy =     6.5930

     21  H    Isotropic =    24.0395   Anisotropy =     3.7829

     22  H    Isotropic =    23.9392   Anisotropy =     7.0476

     23  H    Isotropic =    23.4814   Anisotropy =    10.5416

     24  C    Isotropic =    87.4167   Anisotropy =    68.3323

     25  P    Isotropic =   282.1230   Anisotropy =    88.2879

     26  C    Isotropic =    51.6753   Anisotropy =   165.7767

     27  C    Isotropic =    38.9262   Anisotropy =   182.2885

     28  C    Isotropic =    49.2115   Anisotropy =   189.7164

     29  C    Isotropic =    44.5359   Anisotropy =   200.3366

     30  C    Isotropic =    49.3693   Anisotropy =   189.0528

     31  C    Isotropic =    42.8767   Anisotropy =   191.4996

     32  H    Isotropic =    23.9270   Anisotropy =    11.1393

     33  H    Isotropic =    23.9628   Anisotropy =     6.0594

     34  H    Isotropic =    23.9034   Anisotropy =     3.2298

     35  H    Isotropic =    24.2769   Anisotropy =     6.7162

     36  H    Isotropic =    23.5709   Anisotropy =     9.9282

     37  C    Isotropic =    43.7972   Anisotropy =   170.0263

     38  C    Isotropic =    47.5602   Anisotropy =   189.6188

     39  C    Isotropic =    48.4385   Anisotropy =   190.1415

     40  C    Isotropic =    46.3434   Anisotropy =   195.6491

     41  C    Isotropic =    48.9770   Anisotropy =   189.2701

     42  C    Isotropic =    49.8849   Anisotropy =   187.5240

     43  H    Isotropic =    23.8638   Anisotropy =    10.6836

     44  H    Isotropic =    23.9908   Anisotropy =     6.8272

     45  H    Isotropic =    24.0841   Anisotropy =     3.7305

     46  H    Isotropic =    24.2990   Anisotropy =     6.6015

     47  H    Isotropic =    24.8139   Anisotropy =    13.1863

     48  H    Isotropic =    27.0058   Anisotropy =     3.9425

     49  Rh   Isotropic =  -285.0465   Anisotropy =   307.3254

     50  C    Isotropic =    75.4197   Anisotropy =   126.1720

     51  C    Isotropic =    74.9845   Anisotropy =   118.3188

     52  C    Isotropic =    82.1483   Anisotropy =   116.7608

     53  C    Isotropic =    73.2548   Anisotropy =   122.3525

     54  C    Isotropic =   153.9496   Anisotropy =    25.3508

     55  H    Isotropic =    26.8817   Anisotropy =     5.4112

     56  H    Isotropic =    26.3364   Anisotropy =     5.2702

     57  C    Isotropic =   148.0472   Anisotropy =    28.6118

     58  C    Isotropic =   154.1754   Anisotropy =    24.8868

     59  H    Isotropic =    27.1591   Anisotropy =     6.5404

     60  C    Isotropic =   147.6114   Anisotropy =    29.6115

     61  H    Isotropic =    27.0664   Anisotropy =     4.8129

     62  H    Isotropic =    29.7986   Anisotropy =    11.4082

     63  H    Isotropic =    29.7418   Anisotropy =     9.7978

     64  H    Isotropic =    29.1423   Anisotropy =    12.9161

     65  H    Isotropic =    29.2668   Anisotropy =     7.7571

     66  H    Isotropic =    29.7906   Anisotropy =     9.8906

     67  H    Isotropic =    29.8696   Anisotropy =    11.7589

     68  H    Isotropic =    29.0715   Anisotropy =     7.4167

     69  H    Isotropic =    29.2229   Anisotropy =    12.6167

     70  C    Isotropic =   138.9549   Anisotropy =    58.4879

     71  H    Isotropic =    30.6910   Anisotropy =     6.7485

     72  H    Isotropic =    29.7854   Anisotropy =    11.1770

     73  H    Isotropic =    29.5585   Anisotropy =     4.2232

     74  C    Isotropic =   137.4828   Anisotropy =    61.7065

     75  H    Isotropic =    29.6248   Anisotropy =     4.6558

     76  H    Isotropic =    29.6015   Anisotropy =    11.5235

     77  H    Isotropic =    30.3854   Anisotropy =     7.5515

     78  N    Isotropic =   200.1899   Anisotropy =    52.5241

 The electronic state is 1-A.
 Alpha  occ. eigenvalues --  -77.24050 -77.23788 -14.42543 -10.33787 -10.29772
 Alpha  occ. eigenvalues --  -10.29689 -10.29589 -10.29557 -10.28964 -10.28893
 Alpha  occ. eigenvalues --  -10.28786 -10.28734 -10.28576 -10.28489 -10.28477
 Alpha  occ. eigenvalues --  -10.28451 -10.28294 -10.28269 -10.28228 -10.28203
 Alpha  occ. eigenvalues --  -10.28177 -10.27697 -10.27697 -10.27682 -10.27682
 Alpha  occ. eigenvalues --  -10.27600 -10.27541 -10.27527 -10.27512 -10.27484
 Alpha  occ. eigenvalues --  -10.27476 -10.27442 -10.27422 -10.27381 -10.27279
 Alpha  occ. eigenvalues --  -10.27224 -10.27164 -10.27159  -6.69985  -6.69754
 Alpha  occ. eigenvalues --   -4.86277  -4.86205  -4.86022  -4.85977  -4.85885
 Alpha  occ. eigenvalues --   -4.85670  -3.31423  -2.08324  -2.07658  -2.04896
 Alpha  occ. eigenvalues --   -1.03545  -0.96779  -0.96656  -0.96146  -0.95982
 Alpha  occ. eigenvalues --   -0.94311  -0.89032  -0.88833  -0.87901  -0.87316
 Alpha  occ. eigenvalues --   -0.85443  -0.85379  -0.85286  -0.85058  -0.84908
 Alpha  occ. eigenvalues --   -0.84838  -0.83562  -0.80713  -0.80216  -0.77703
 Alpha  occ. eigenvalues --   -0.75620  -0.75415  -0.71614  -0.71321  -0.71101
 Alpha  occ. eigenvalues --   -0.70876  -0.70470  -0.70350  -0.70227  -0.70203
 Alpha  occ. eigenvalues --   -0.67058  -0.65778  -0.65722  -0.62742  -0.62451
 Alpha  occ. eigenvalues --   -0.62098  -0.61441  -0.60629  -0.59882  -0.58802
 Alpha  occ. eigenvalues --   -0.57360  -0.56976  -0.56652  -0.56220  -0.56105
 Alpha  occ. eigenvalues --   -0.56066  -0.55748  -0.55550  -0.55498  -0.55311
 Alpha  occ. eigenvalues --   -0.54457  -0.54129  -0.53557  -0.53228  -0.52807
 Alpha  occ. eigenvalues --   -0.52770  -0.52560  -0.52480  -0.52388  -0.52215
 Alpha  occ. eigenvalues --   -0.51309  -0.50190  -0.49606  -0.49503  -0.48837
 Alpha  occ. eigenvalues --   -0.48377  -0.48077  -0.47961  -0.47674  -0.47343
 Alpha  occ. eigenvalues --   -0.46931  -0.46704  -0.46017  -0.45983  -0.45882
 Alpha  occ. eigenvalues --   -0.45170  -0.45125  -0.44988  -0.44835  -0.43721
 Alpha  occ. eigenvalues --   -0.43442  -0.43320  -0.43182  -0.42848  -0.42810
 Alpha  occ. eigenvalues --   -0.41368  -0.38033  -0.37685  -0.36906  -0.36423
 Alpha  occ. eigenvalues --   -0.36224  -0.36088  -0.35960  -0.35730  -0.35469
 Alpha  occ. eigenvalues --   -0.35042  -0.34491  -0.34113  -0.33549  -0.32632
 Alpha  occ. eigenvalues --   -0.30651
 Alpha virt. eigenvalues --   -0.16200  -0.14910  -0.13978  -0.13250  -0.12581
 Alpha virt. eigenvalues --   -0.11932  -0.11698  -0.11046  -0.10685  -0.10340
 Alpha virt. eigenvalues --   -0.09206  -0.07718  -0.06815  -0.06375  -0.06141

 Mulliken charges:
               1
     1  P    0.271307
     2  C   -0.123953
     3  C   -0.049289
     4  C   -0.115518
     5  C   -0.096522
     6  C   -0.095432
     7  C   -0.129844
     8  H    0.155764
     9  H    0.133018
    10  H    0.135708
    11  H    0.130294
    12  H    0.217600
    13  C   -0.157560
    14  C   -0.097576
    15  C   -0.099303
    16  C   -0.087074
    17  C   -0.101480
    18  C   -0.069489
    19  H    0.168785
    20  H    0.135776
    21  H    0.139978
    22  H    0.130376
    23  H    0.174373
    24  C   -0.516758
    25  P    0.307237
    26  C   -0.271032
    27  C    0.033097
    28  C   -0.130405
    29  C   -0.085711
    30  C   -0.107023
    31  C   -0.026660
    32  H    0.131455
    33  H    0.132857
    34  H    0.138090
    35  H    0.129066
    36  H    0.161388
    37  C   -0.183523
    38  C   -0.049034
    39  C   -0.101574
    40  C   -0.095099
    41  C   -0.098405
    42  C   -0.069074
    43  H    0.124750
    44  H    0.131092
    45  H    0.139574
    46  H    0.135336
    47  H    0.166860
    48  H    0.197266
    49  Rh  -0.573659
    50  C   -0.044703
    51  C   -0.081444
    52  C   -0.022008
    53  C   -0.104150
    54  C   -0.346631
    55  H    0.211540
    56  H    0.166952
    57  C   -0.213257
    58  C   -0.358684
    59  H    0.190128
    60  C   -0.235782
    61  H    0.220786
    62  H    0.167544
    63  H    0.167473
    64  H    0.171143
    65  H    0.133023
    66  H    0.166775
    67  H    0.168354
    68  H    0.126884
    69  H    0.171887
    70  C   -0.292014
    71  H    0.125421
    72  H    0.146489
    73  H    0.150821
    74  C   -0.285968
    75  H    0.151980
    76  H    0.151718
    77  H    0.119078
    78  N   -0.113410
 Sum of Mulliken charges =   1.00000

 Dipole moment (field-independent basis, Debye):
    X=              0.0034    Y=             -0.1412    Z=              0.4911  Tot=              0.5110
 Quadrupole moment (field-independent basis, Debye-Ang):
   XX=           -205.3322   YY=           -209.5977   ZZ=           -218.7281
   XY=              2.3543   XZ=              1.3774   YZ=             -5.8437

 Summary of Natural Population Analysis:

                                       Natural Population
                Natural  -----------------------------------------------
    Atom  No    Charge         Core      Valence    Rydberg      Total
 -----------------------------------------------------------------------
      P    1    1.11772      9.99636     3.83314    0.05278    13.88228
      C    2   -0.35284      1.99898     4.32938    0.02448     6.35284
      C    3   -0.19804      1.99909     4.18188    0.01707     6.19804
      C    4   -0.19151      1.99920     4.17695    0.01536     6.19151
      C    5   -0.18006      1.99920     4.16612    0.01474     6.18006
      C    6   -0.19483      1.99919     4.18104    0.01459     6.19483
      C    7   -0.19791      1.99909     4.18363    0.01519     6.19791
      H    8    0.21333      0.00000     0.78473    0.00194     0.78667
      H    9    0.22210      0.00000     0.77667    0.00123     0.77790
      H   10    0.22200      0.00000     0.77686    0.00114     0.77800
      H   11    0.22102      0.00000     0.77759    0.00139     0.77898
      H   12    0.23739      0.00000     0.75953    0.00308     0.76261
      C   13   -0.34622      1.99898     4.32284    0.02440     6.34622
      C   14   -0.19779      1.99909     4.18308    0.01561     6.19779
      C   15   -0.19505      1.99920     4.18122    0.01464     6.19505
      C   16   -0.17616      1.99921     4.16238    0.01458     6.17616
      C   17   -0.19062      1.99920     4.17677    0.01466     6.19062
      C   18   -0.19039      1.99909     4.17589    0.01542     6.19039
      H   19    0.22398      0.00000     0.77409    0.00194     0.77602
      H   20    0.22350      0.00000     0.77528    0.00122     0.77650
      H   21    0.22346      0.00000     0.77537    0.00117     0.77654
      H   22    0.22120      0.00000     0.77757    0.00124     0.77880
      H   23    0.21729      0.00000     0.78078    0.00193     0.78271
      C   24   -0.53755      1.99930     4.51075    0.02751     6.53755
      P   25    1.12565      9.99630     3.82406    0.05400    13.87435
      C   26   -0.35735      1.99898     4.33294    0.02543     6.35735
      C   27   -0.17309      1.99910     4.15810    0.01589     6.17309
      C   28   -0.19848      1.99919     4.18462    0.01467     6.19848
      C   29   -0.17227      1.99920     4.15850    0.01456     6.17227
      C   30   -0.19869      1.99919     4.18477    0.01472     6.19869
      C   31   -0.18318      1.99910     4.16742    0.01666     6.18318
      H   32    0.21795      0.00000     0.78009    0.00197     0.78205
      H   33    0.22261      0.00000     0.77617    0.00122     0.77739
      H   34    0.22245      0.00000     0.77640    0.00115     0.77755
      H   35    0.22143      0.00000     0.77734    0.00122     0.77857
      H   36    0.22260      0.00000     0.77525    0.00215     0.77740
      C   37   -0.34931      1.99899     4.32625    0.02407     6.34931
      C   38   -0.19669      1.99909     4.18236    0.01524     6.19669
      C   39   -0.18842      1.99920     4.17454    0.01468     6.18842
      C   40   -0.18080      1.99920     4.16687    0.01472     6.18080
      C   41   -0.19164      1.99920     4.17770    0.01475     6.19164
      C   42   -0.20098      1.99909     4.18664    0.01526     6.20098
      H   43    0.20985      0.00000     0.78816    0.00199     0.79015
      H   44    0.22176      0.00000     0.77700    0.00123     0.77824
      H   45    0.22365      0.00000     0.77519    0.00117     0.77635
      H   46    0.22351      0.00000     0.77528    0.00121     0.77649
      H   47    0.22537      0.00000     0.77288    0.00175     0.77463
      H   48    0.21287      0.00000     0.78204    0.00510     0.78713
     Rh   49   -0.39736     35.98571     9.38263    0.02902    45.39736
      C   50   -0.17037      1.99906     4.15172    0.01959     6.17037
      C   51   -0.16391      1.99908     4.14496    0.01988     6.16391
      C   52   -0.18637      1.99906     4.16775    0.01956     6.18637
      C   53   -0.15220      1.99907     4.13347    0.01965     6.15220
      C   54   -0.42432      1.99936     4.41312    0.01184     6.42432
      H   55    0.22900      0.00000     0.76885    0.00215     0.77100
      H   56    0.22460      0.00000     0.77336    0.00204     0.77540
      C   57   -0.41861      1.99935     4.40668    0.01257     6.41861
      C   58   -0.42264      1.99936     4.41153    0.01175     6.42264
      H   59    0.22615      0.00000     0.77193    0.00192     0.77385
      C   60   -0.41691      1.99935     4.40498    0.01259     6.41691
      H   61    0.23199      0.00000     0.76600    0.00200     0.76801
      H   62    0.22760      0.00000     0.77092    0.00148     0.77240
      H   63    0.21521      0.00000     0.78280    0.00198     0.78479
      H   64    0.23395      0.00000     0.76415    0.00190     0.76605
      H   65    0.21627      0.00000     0.78220    0.00154     0.78373
      H   66    0.21476      0.00000     0.78324    0.00200     0.78524
      H   67    0.22802      0.00000     0.77049    0.00149     0.77198
      H   68    0.21390      0.00000     0.78454    0.00156     0.78610
      H   69    0.23355      0.00000     0.76453    0.00192     0.76645
      C   70   -0.40547      1.99936     4.39524    0.01087     6.40547
      H   71    0.17348      0.00000     0.82282    0.00370     0.82652
      H   72    0.21158      0.00000     0.78690    0.00152     0.78842
      H   73    0.20187      0.00000     0.79573    0.00239     0.79813
      C   74   -0.40485      1.99936     4.39426    0.01122     6.40485
      H   75    0.19910      0.00000     0.79896    0.00194     0.80090
      H   76    0.21168      0.00000     0.78682    0.00149     0.78832
      H   77    0.17203      0.00000     0.82415    0.00383     0.82797
      N   78   -0.45459      1.99952     5.43043    0.02463     7.45459
 =======================================================================
   * Total *    1.00000    127.94864   201.23921    0.81214   330.00000

 Normal termination of Gaussian 16 at Wed Jan 22 22:26:15 2025.
